 Entering Gaussian System, Link 0=g09
 Input=methane.com
 Output=methane.log
 Initial command:
 /Applications/g09/l1.exe "/Users/js4811/Scratch/Gau-9234.inp" -scrdir="/Users/js4811/Scratch/"
 Entering Link 1 = /Applications/g09/l1.exe PID=      9236.
  
 Copyright (c) 1988,1990,1992,1993,1995,1998,2003,2009,2013,
            Gaussian, Inc.  All Rights Reserved.
  
 This is part of the Gaussian(R) 09 program.  It is based on
 the Gaussian(R) 03 system (copyright 2003, Gaussian, Inc.),
 the Gaussian(R) 98 system (copyright 1998, Gaussian, Inc.),
 the Gaussian(R) 94 system (copyright 1995, Gaussian, Inc.),
 the Gaussian 92(TM) system (copyright 1992, Gaussian, Inc.),
 the Gaussian 90(TM) system (copyright 1990, Gaussian, Inc.),
 the Gaussian 88(TM) system (copyright 1988, Gaussian, Inc.),
 the Gaussian 86(TM) system (copyright 1986, Carnegie Mellon
 University), and the Gaussian 82(TM) system (copyright 1983,
 Carnegie Mellon University). Gaussian is a federally registered
 trademark of Gaussian, Inc.
  
 This software contains proprietary and confidential information,
 including trade secrets, belonging to Gaussian, Inc.
  
 This software is provided under written license and may be
 used, copied, transmitted, or stored only in accord with that
 written license.
  
 The following legend is applicable only to US Government
 contracts under FAR:
  
                    RESTRICTED RIGHTS LEGEND
  
 Use, reproduction and disclosure by the US Government is
 subject to restrictions as set forth in subparagraphs (a)
 and (c) of the Commercial Computer Software - Restricted
 Rights clause in FAR 52.227-19.
  
 Gaussian, Inc.
 340 Quinnipiac St., Bldg. 40, Wallingford CT 06492
  
  
 ---------------------------------------------------------------
 Warning -- This program may not be used in any manner that
 competes with the business of Gaussian, Inc. or will provide
 assistance to any competitor of Gaussian, Inc.  The licensee
 of this program is prohibited from giving any competitor of
 Gaussian, Inc. access to this program.  By using this program,
 the user acknowledges that Gaussian, Inc. is engaged in the
 business of creating and licensing software in the field of
 computational chemistry and represents and warrants to the
 licensee that it is not a competitor of Gaussian, Inc. and that
 it will not use this program in any manner prohibited above.
 ---------------------------------------------------------------
  

 Cite this work as:
 Gaussian 09, Revision D.01,
 M. J. Frisch, G. W. Trucks, H. B. Schlegel, G. E. Scuseria, 
 M. A. Robb, J. R. Cheeseman, G. Scalmani, V. Barone, B. Mennucci, 
 G. A. Petersson, H. Nakatsuji, M. Caricato, X. Li, H. P. Hratchian, 
 A. F. Izmaylov, J. Bloino, G. Zheng, J. L. Sonnenberg, M. Hada, 
 M. Ehara, K. Toyota, R. Fukuda, J. Hasegawa, M. Ishida, T. Nakajima, 
 Y. Honda, O. Kitao, H. Nakai, T. Vreven, J. A. Montgomery, Jr., 
 J. E. Peralta, F. Ogliaro, M. Bearpark, J. J. Heyd, E. Brothers, 
 K. N. Kudin, V. N. Staroverov, T. Keith, R. Kobayashi, J. Normand, 
 K. Raghavachari, A. Rendell, J. C. Burant, S. S. Iyengar, J. Tomasi, 
 M. Cossi, N. Rega, J. M. Millam, M. Klene, J. E. Knox, J. B. Cross, 
 V. Bakken, C. Adamo, J. Jaramillo, R. Gomperts, R. E. Stratmann, 
 O. Yazyev, A. J. Austin, R. Cammi, C. Pomelli, J. W. Ochterski, 
 R. L. Martin, K. Morokuma, V. G. Zakrzewski, G. A. Voth, 
 P. Salvador, J. J. Dannenberg, S. Dapprich, A. D. Daniels, 
 O. Farkas, J. B. Foresman, J. V. Ortiz, J. Cioslowski, 
 and D. J. Fox, Gaussian, Inc., Wallingford CT, 2013.
 
 ******************************************
 Gaussian 09:  EM64M-G09RevD.01 24-Apr-2013
                11-Mar-2016 
 ******************************************
 %chk=methane.chk
 ----------------------------
 # B3LYP/6-311G(d,p) Opt Freq
 ----------------------------
 1/14=-1,18=20,19=15,26=3,38=1/1,3;
 2/9=110,12=2,17=6,18=5,40=1/2;
 3/5=4,6=6,7=101,11=2,16=1,25=1,30=1,71=1,74=-5/1,2,3;
 4//1;
 5/5=2,38=5/2;
 6/7=2,8=2,9=2,10=2,28=1/1;
 7//1,2,3,16;
 1/14=-1,18=20,19=15,26=3/3(2);
 2/9=110/2;
 99//99;
 2/9=110/2;
 3/5=4,6=6,7=101,11=2,16=1,25=1,30=1,71=1,74=-5/1,2,3;
 4/5=5,16=3,69=1/1;
 5/5=2,38=5/2;
 7//1,2,3,16;
 1/14=-1,18=20,19=15,26=3/3(-5);
 2/9=110/2;
 6/7=2,8=2,9=2,10=2,19=2,28=1/1;
 99/9=1/99;
 -------
 Methane
 -------
 Symbolic Z-matrix:
 Charge =  0 Multiplicity = 1
 C
 H                    1     1.08688 
 H                    1     1.08688  2     109.47122 
 H                    1     1.08688  2     109.47122  3     120.     0
 H                    1     1.08688  2     109.47122  3    -120.     0
 
     3 tetrahedral angles replaced.

 GradGradGradGradGradGradGradGradGradGradGradGradGradGradGradGradGradGrad
 Berny optimization.
 Initialization pass.
                           ----------------------------
                           !    Initial Parameters    !
                           ! (Angstroms and Degrees)  !
 --------------------------                            --------------------------
 ! Name  Definition              Value          Derivative Info.                !
 --------------------------------------------------------------------------------
 ! R1    R(1,2)                  1.0869         estimate D2E/DX2                !
 ! R2    R(1,3)                  1.0869         estimate D2E/DX2                !
 ! R3    R(1,4)                  1.0869         estimate D2E/DX2                !
 ! R4    R(1,5)                  1.0869         estimate D2E/DX2                !
 ! A1    A(2,1,3)              109.4712         estimate D2E/DX2                !
 ! A2    A(2,1,4)              109.4712         estimate D2E/DX2                !
 ! A3    A(2,1,5)              109.4712         estimate D2E/DX2                !
 ! A4    A(3,1,4)              109.4712         estimate D2E/DX2                !
 ! A5    A(3,1,5)              109.4712         estimate D2E/DX2                !
 ! A6    A(4,1,5)              109.4712         estimate D2E/DX2                !
 ! D1    D(2,1,4,3)           -120.0            estimate D2E/DX2                !
 ! D2    D(2,1,5,3)            120.0            estimate D2E/DX2                !
 ! D3    D(2,1,5,4)           -120.0            estimate D2E/DX2                !
 ! D4    D(3,1,5,4)            120.0            estimate D2E/DX2                !
 --------------------------------------------------------------------------------
 Trust Radius=3.00D-01 FncErr=1.00D-07 GrdErr=1.00D-06
 Number of steps in this run=     24 maximum allowed number of steps=    100.
 GradGradGradGradGradGradGradGradGradGradGradGradGradGradGradGradGradGrad

                          Input orientation:                          
 ---------------------------------------------------------------------
 Center     Atomic      Atomic             Coordinates (Angstroms)
 Number     Number       Type             X           Y           Z
 ---------------------------------------------------------------------
      1          6           0        0.000000    0.000000    0.000000
      2          1           0        0.000000    0.000000    1.086877
      3          1           0        1.024718    0.000000   -0.362292
      4          1           0       -0.512359   -0.887432   -0.362292
      5          1           0       -0.512359    0.887432   -0.362292
 ---------------------------------------------------------------------
                    Distance matrix (angstroms):
                    1          2          3          4          5
     1  C    0.000000
     2  H    1.086877   0.000000
     3  H    1.086877   1.774863   0.000000
     4  H    1.086877   1.774863   1.774863   0.000000
     5  H    1.086877   1.774863   1.774863   1.774863   0.000000
 Stoichiometry    CH4
 Framework group  TD[O(C),4C3(H)]
 Deg. of freedom     1
 Full point group                 TD      NOp  24
 Largest Abelian subgroup         D2      NOp   4
 Largest concise Abelian subgroup D2      NOp   4
                         Standard orientation:                         
 ---------------------------------------------------------------------
 Center     Atomic      Atomic             Coordinates (Angstroms)
 Number     Number       Type             X           Y           Z
 ---------------------------------------------------------------------
      1          6           0        0.000000    0.000000    0.000000
      2          1           0        0.627509    0.627509    0.627509
      3          1           0       -0.627509   -0.627509    0.627509
      4          1           0       -0.627509    0.627509   -0.627509
      5          1           0        0.627509   -0.627509   -0.627509
 ---------------------------------------------------------------------
 Rotational constants (GHZ):    159.1850023    159.1850023    159.1850023
 Standard basis: 6-311G(d,p) (5D, 7F)
 There are    13 symmetry adapted cartesian basis functions of A   symmetry.
 There are    10 symmetry adapted cartesian basis functions of B1  symmetry.
 There are    10 symmetry adapted cartesian basis functions of B2  symmetry.
 There are    10 symmetry adapted cartesian basis functions of B3  symmetry.
 There are    12 symmetry adapted basis functions of A   symmetry.
 There are    10 symmetry adapted basis functions of B1  symmetry.
 There are    10 symmetry adapted basis functions of B2  symmetry.
 There are    10 symmetry adapted basis functions of B3  symmetry.
    42 basis functions,    64 primitive gaussians,    43 cartesian basis functions
     5 alpha electrons        5 beta electrons
       nuclear repulsion energy        13.4739882160 Hartrees.
 NAtoms=    5 NActive=    5 NUniq=    2 SFac= 4.00D+00 NAtFMM=   60 NAOKFM=F Big=F
 Integral buffers will be    131072 words long.
 Raffenetti 2 integral format.
 Two-electron integral symmetry is turned on.
 One-electron integrals computed using PRISM.
 NBasis=    42 RedAO= T EigKep=  1.26D-02  NBF=    12    10    10    10
 NBsUse=    42 1.00D-06 EigRej= -1.00D+00 NBFU=    12    10    10    10
 ExpMin= 1.03D-01 ExpMax= 4.56D+03 ExpMxC= 6.82D+02 IAcc=1 IRadAn=         1 AccDes= 0.00D+00
 Harris functional with IExCor=  402 and IRadAn=       1 diagonalized for initial guess.
 HarFok:  IExCor=  402 AccDes= 0.00D+00 IRadAn=         1 IDoV= 1 UseB2=F ITyADJ=14
 ICtDFT=  3500011 ScaDFX=  1.000000  1.000000  1.000000  1.000000
 FoFCou: FMM=F IPFlag=           0 FMFlag=      100000 FMFlg1=           0
         NFxFlg=           0 DoJE=T BraDBF=F KetDBF=T FulRan=T
         wScrn=  0.000000 ICntrl=     500 IOpCl=  0 I1Cent=   200000004 NGrid=           0
         NMat0=    1 NMatS0=      1 NMatT0=    0 NMatD0=    1 NMtDS0=    0 NMtDT0=    0
 Petite list used in FoFCou.
 Initial guess orbital symmetries:
       Occupied  (A1) (A1) (T2) (T2) (T2)
       Virtual   (A1) (T2) (T2) (T2) (T2) (T2) (T2) (A1) (T2) (T2)
                 (T2) (A1) (E) (E) (T2) (T2) (T2) (T1) (T1) (T1)
                 (T2) (T2) (T2) (A1) (E) (E) (T2) (T2) (T2) (T2)
                 (T2) (T2) (A1) (T2) (T2) (T2) (A1)
 The electronic state of the initial guess is 1-A1.
 Keep R1 ints in memory in symmetry-blocked form, NReq=1297003.
 Requested convergence on RMS density matrix=1.00D-08 within 128 cycles.
 Requested convergence on MAX density matrix=1.00D-06.
 Requested convergence on             energy=1.00D-06.
 No special actions if energy rises.
 Integral accuracy reduced to 1.0D-05 until final iterations.
 Initial convergence to 1.0D-05 achieved.  Increase integral accuracy.
 SCF Done:  E(RB3LYP) =  -40.5337109039     A.U. after   10 cycles
            NFock= 10  Conv=0.97D-09     -V/T= 2.0057

 **********************************************************************

            Population analysis using the SCF density.

 **********************************************************************

 Orbital symmetries:
       Occupied  (A1) (A1) (T2) (T2) (T2)
       Virtual   (A1) (T2) (T2) (T2) (T2) (T2) (T2) (A1) (T2) (T2)
                 (T2) (A1) (E) (E) (T1) (T1) (T1) (T2) (T2) (T2)
                 (T2) (T2) (T2) (A1) (E) (E) (T2) (T2) (T2) (T2)
                 (T2) (T2) (A1) (T2) (T2) (T2) (A1)
 The electronic state is 1-A1.
 Alpha  occ. eigenvalues --  -10.15059  -0.69733  -0.39557  -0.39557  -0.39557
 Alpha virt. eigenvalues --    0.05402   0.12478   0.12478   0.12478   0.27923
 Alpha virt. eigenvalues --    0.27923   0.27923   0.54638   0.59292   0.59292
 Alpha virt. eigenvalues --    0.59292   0.74224   0.96504   0.96504   1.45763
 Alpha virt. eigenvalues --    1.45763   1.45763   1.46119   1.46119   1.46119
 Alpha virt. eigenvalues --    1.89192   1.89192   1.89192   2.17891   2.32040
 Alpha virt. eigenvalues --    2.32040   2.39710   2.39710   2.39710   2.52972
 Alpha virt. eigenvalues --    2.52972   2.52972   2.86758   3.79593   3.79593
 Alpha virt. eigenvalues --    3.79593  24.00089
          Condensed to atoms (all electrons):
               1          2          3          4          5
     1  C    4.824211   0.403149   0.403149   0.403149   0.403149
     2  H    0.403149   0.566329  -0.026227  -0.026227  -0.026227
     3  H    0.403149  -0.026227   0.566329  -0.026227  -0.026227
     4  H    0.403149  -0.026227  -0.026227   0.566329  -0.026227
     5  H    0.403149  -0.026227  -0.026227  -0.026227   0.566329
 Mulliken charges:
               1
     1  C   -0.436807
     2  H    0.109202
     3  H    0.109202
     4  H    0.109202
     5  H    0.109202
 Sum of Mulliken charges =   0.00000
 Mulliken charges with hydrogens summed into heavy atoms:
               1
     1  C    0.000000
 Electronic spatial extent (au):  <R**2>=             35.7227
 Charge=              0.0000 electrons
 Dipole moment (field-independent basis, Debye):
    X=              0.0000    Y=              0.0000    Z=              0.0000  Tot=              0.0000
 Quadrupole moment (field-independent basis, Debye-Ang):
   XX=             -8.4507   YY=             -8.4507   ZZ=             -8.4507
   XY=              0.0000   XZ=              0.0000   YZ=              0.0000
 Traceless Quadrupole moment (field-independent basis, Debye-Ang):
   XX=              0.0000   YY=              0.0000   ZZ=              0.0000
   XY=              0.0000   XZ=              0.0000   YZ=              0.0000
 Octapole moment (field-independent basis, Debye-Ang**2):
  XXX=              0.0000  YYY=              0.0000  ZZZ=              0.0000  XYY=              0.0000
  XXY=              0.0000  XXZ=              0.0000  XZZ=              0.0000  YZZ=              0.0000
  YYZ=              0.0000  XYZ=              0.6966
 Hexadecapole moment (field-independent basis, Debye-Ang**3):
 XXXX=            -16.8924 YYYY=            -16.8924 ZZZZ=            -16.8924 XXXY=              0.0000
 XXXZ=              0.0000 YYYX=              0.0000 YYYZ=              0.0000 ZZZX=              0.0000
 ZZZY=              0.0000 XXYY=             -5.1365 XXZZ=             -5.1365 YYZZ=             -5.1365
 XXYZ=              0.0000 YYXZ=              0.0000 ZZXY=              0.0000
 N-N= 1.347398821598D+01 E-N=-1.202215668354D+02  KE= 4.030482305655D+01
 Symmetry A    KE= 3.444704400407D+01
 Symmetry B1   KE= 1.952593017493D+00
 Symmetry B2   KE= 1.952593017493D+00
 Symmetry B3   KE= 1.952593017493D+00
 Calling FoFJK, ICntrl=      2127 FMM=F ISym2X=1 I1Cent= 0 IOpClX= 0 NMat=1 NMatS=1 NMatT=0.
 ***** Axes restored to original set *****
 -------------------------------------------------------------------
 Center     Atomic                   Forces (Hartrees/Bohr)
 Number     Number              X              Y              Z
 -------------------------------------------------------------------
      1        6           0.000000000    0.000000000    0.000000000
      2        1           0.000000000    0.000000000    0.002578062
      3        1           0.002430620    0.000000000   -0.000859354
      4        1          -0.001215310   -0.002104979   -0.000859354
      5        1          -0.001215310    0.002104979   -0.000859354
 -------------------------------------------------------------------
 Cartesian Forces:  Max     0.002578062 RMS     0.001331306

 GradGradGradGradGradGradGradGradGradGradGradGradGradGradGradGradGradGrad
 Berny optimization.
 FormGI is forming the generalized inverse of G from B-inverse, IUseBI=4.
 Internal  Forces:  Max     0.002578062 RMS     0.001378032
 Search for a local minimum.
 Step number   1 out of a maximum of   24
 All quantities printed in internal units (Hartrees-Bohrs-Radians)
 Mixed Optimization -- RFO/linear search
 Second derivative matrix not updated -- first step.
 The second derivative matrix:
                          R1        R2        R3        R4        A1
           R1           0.35176
           R2           0.00000   0.35176
           R3           0.00000   0.00000   0.35176
           R4           0.00000   0.00000   0.00000   0.35176
           A1           0.00000   0.00000   0.00000   0.00000   0.16000
           A2           0.00000   0.00000   0.00000   0.00000   0.00000
           A3           0.00000   0.00000   0.00000   0.00000   0.00000
           A4           0.00000   0.00000   0.00000   0.00000   0.00000
           A5           0.00000   0.00000   0.00000   0.00000   0.00000
           A6           0.00000   0.00000   0.00000   0.00000   0.00000
           D1           0.00000   0.00000   0.00000   0.00000   0.00000
           D2           0.00000   0.00000   0.00000   0.00000   0.00000
           D3           0.00000   0.00000   0.00000   0.00000   0.00000
           D4           0.00000   0.00000   0.00000   0.00000   0.00000
                          A2        A3        A4        A5        A6
           A2           0.16000
           A3           0.00000   0.16000
           A4           0.00000   0.00000   0.16000
           A5           0.00000   0.00000   0.00000   0.16000
           A6           0.00000   0.00000   0.00000   0.00000   0.16000
           D1           0.00000   0.00000   0.00000   0.00000   0.00000
           D2           0.00000   0.00000   0.00000   0.00000   0.00000
           D3           0.00000   0.00000   0.00000   0.00000   0.00000
           D4           0.00000   0.00000   0.00000   0.00000   0.00000
                          D1        D2        D3        D4
           D1           0.00276
           D2           0.00000   0.00276
           D3           0.00000   0.00000   0.00276
           D4           0.00000   0.00000   0.00000   0.00276
 ITU=  0
     Eigenvalues ---    0.05114   0.05745   0.08662   0.16000   0.16000
     Eigenvalues ---    0.35176   0.35176   0.35176   0.35176
 RFO step:  Lambda=-7.55626403D-05 EMin= 5.11424741D-02
 Linear search not attempted -- first point.
 Iteration  1 RMS(Cart)=  0.00391669 RMS(Int)=  0.00000000
 Iteration  2 RMS(Cart)=  0.00000000 RMS(Int)=  0.00000000
 ClnCor:  largest displacement from symmetrization is 2.95D-14 for atom     4.
 Variable       Old X    -DE/DX   Delta X   Delta X   Delta X     New X
                                 (Linear)    (Quad)   (Total)
    R1        2.05390   0.00258   0.00000   0.00733   0.00733   2.06123
    R2        2.05390   0.00258   0.00000   0.00733   0.00733   2.06123
    R3        2.05390   0.00258   0.00000   0.00733   0.00733   2.06123
    R4        2.05390   0.00258   0.00000   0.00733   0.00733   2.06123
    A1        1.91063   0.00000   0.00000   0.00000   0.00000   1.91063
    A2        1.91063   0.00000   0.00000   0.00000   0.00000   1.91063
    A3        1.91063   0.00000   0.00000   0.00000   0.00000   1.91063
    A4        1.91063   0.00000   0.00000   0.00000   0.00000   1.91063
    A5        1.91063   0.00000   0.00000   0.00000   0.00000   1.91063
    A6        1.91063   0.00000   0.00000   0.00000   0.00000   1.91063
    D1       -2.09440   0.00000   0.00000   0.00000   0.00000  -2.09440
    D2        2.09440   0.00000   0.00000   0.00000   0.00000   2.09440
    D3       -2.09440   0.00000   0.00000   0.00000   0.00000  -2.09440
    D4        2.09440   0.00000   0.00000   0.00000   0.00000   2.09440
         Item               Value     Threshold  Converged?
 Maximum Force            0.002578     0.000450     NO 
 RMS     Force            0.001378     0.000300     NO 
 Maximum Displacement     0.007327     0.001800     NO 
 RMS     Displacement     0.003917     0.001200     NO 
 Predicted change in Energy=-3.778944D-05
 GradGradGradGradGradGradGradGradGradGradGradGradGradGradGradGradGradGrad

                          Input orientation:                          
 ---------------------------------------------------------------------
 Center     Atomic      Atomic             Coordinates (Angstroms)
 Number     Number       Type             X           Y           Z
 ---------------------------------------------------------------------
      1          6           0        0.000000    0.000000    0.000000
      2          1           0        0.000000    0.000000    1.090755
      3          1           0        1.028374    0.000000   -0.363585
      4          1           0       -0.514187   -0.890598   -0.363585
      5          1           0       -0.514187    0.890598   -0.363585
 ---------------------------------------------------------------------
                    Distance matrix (angstroms):
                    1          2          3          4          5
     1  C    0.000000
     2  H    1.090755   0.000000
     3  H    1.090755   1.781195   0.000000
     4  H    1.090755   1.781195   1.781195   0.000000
     5  H    1.090755   1.781195   1.781195   1.781195   0.000000
 Stoichiometry    CH4
 Framework group  TD[O(C),4C3(H)]
 Deg. of freedom     1
 Full point group                 TD      NOp  24
 Largest Abelian subgroup         D2      NOp   4
 Largest concise Abelian subgroup D2      NOp   4
                         Standard orientation:                         
 ---------------------------------------------------------------------
 Center     Atomic      Atomic             Coordinates (Angstroms)
 Number     Number       Type             X           Y           Z
 ---------------------------------------------------------------------
      1          6           0        0.000000    0.000000    0.000000
      2          1           0        0.629748    0.629748    0.629748
      3          1           0       -0.629748   -0.629748    0.629748
      4          1           0       -0.629748    0.629748   -0.629748
      5          1           0        0.629748   -0.629748   -0.629748
 ---------------------------------------------------------------------
 Rotational constants (GHZ):    158.0552397    158.0552397    158.0552397
 Standard basis: 6-311G(d,p) (5D, 7F)
 There are    13 symmetry adapted cartesian basis functions of A   symmetry.
 There are    10 symmetry adapted cartesian basis functions of B1  symmetry.
 There are    10 symmetry adapted cartesian basis functions of B2  symmetry.
 There are    10 symmetry adapted cartesian basis functions of B3  symmetry.
 There are    12 symmetry adapted basis functions of A   symmetry.
 There are    10 symmetry adapted basis functions of B1  symmetry.
 There are    10 symmetry adapted basis functions of B2  symmetry.
 There are    10 symmetry adapted basis functions of B3  symmetry.
    42 basis functions,    64 primitive gaussians,    43 cartesian basis functions
     5 alpha electrons        5 beta electrons
       nuclear repulsion energy        13.4260895057 Hartrees.
 NAtoms=    5 NActive=    5 NUniq=    2 SFac= 4.00D+00 NAtFMM=   60 NAOKFM=F Big=F
 Integral buffers will be    131072 words long.
 Raffenetti 2 integral format.
 Two-electron integral symmetry is turned on.
 One-electron integrals computed using PRISM.
 NBasis=    42 RedAO= T EigKep=  1.28D-02  NBF=    12    10    10    10
 NBsUse=    42 1.00D-06 EigRej= -1.00D+00 NBFU=    12    10    10    10
 Initial guess from the checkpoint file:  "methane.chk"
 B after Tr=     0.000000    0.000000    0.000000
         Rot=    1.000000    0.000000    0.000000    0.000000 Ang=   0.00 deg.
 Initial guess orbital symmetries:
       Occupied  (A1) (A1) (T2) (T2) (T2)
       Virtual   (A1) (A1) (E) (E) (A1) (A1) (E) (E) (A1) (A1)
                 (T2) (T2) (T2) (T2) (T1) (T2) (T2) (T2) (T2) (T2)
                 (T2) (T2) (T2) (T1) (T2) (T2) (T2) (T2) (T2) (T2)
                 (T2) (T2) (T1) (T2) (T2) (T2) (T2)
 Keep R1 ints in memory in symmetry-blocked form, NReq=1297003.
 Requested convergence on RMS density matrix=1.00D-08 within 128 cycles.
 Requested convergence on MAX density matrix=1.00D-06.
 Requested convergence on             energy=1.00D-06.
 No special actions if energy rises.
 SCF Done:  E(RB3LYP) =  -40.5337484279     A.U. after    6 cycles
            NFock=  6  Conv=0.10D-08     -V/T= 2.0062
 Calling FoFJK, ICntrl=      2127 FMM=F ISym2X=1 I1Cent= 0 IOpClX= 0 NMat=1 NMatS=1 NMatT=0.
 ***** Axes restored to original set *****
 -------------------------------------------------------------------
 Center     Atomic                   Forces (Hartrees/Bohr)
 Number     Number              X              Y              Z
 -------------------------------------------------------------------
      1        6           0.000000000    0.000000000    0.000000000
      2        1           0.000000000    0.000000000   -0.000008459
      3        1          -0.000007976    0.000000000    0.000002820
      4        1           0.000003988    0.000006907    0.000002820
      5        1           0.000003988   -0.000006907    0.000002820
 -------------------------------------------------------------------
 Cartesian Forces:  Max     0.000008459 RMS     0.000004368

 GradGradGradGradGradGradGradGradGradGradGradGradGradGradGradGradGradGrad
 Berny optimization.
 Using GEDIIS/GDIIS optimizer.
 FormGI is forming the generalized inverse of G from B-inverse, IUseBI=4.
 Internal  Forces:  Max     0.000008459 RMS     0.000004522
 Search for a local minimum.
 Step number   2 out of a maximum of   24
 All quantities printed in internal units (Hartrees-Bohrs-Radians)
 Mixed Optimization -- En-DIIS/RFO-DIIS
 Update second derivatives using D2CorX and points    1    2
 DE= -3.75D-05 DEPred=-3.78D-05 R= 9.93D-01
 TightC=F SS=  1.41D+00  RLast= 1.47D-02 DXNew= 5.0454D-01 4.3965D-02
 Trust test= 9.93D-01 RLast= 1.47D-02 DXMaxT set to 3.00D-01
 The second derivative matrix:
                          R1        R2        R3        R4        A1
           R1           0.35207
           R2           0.00031   0.35207
           R3           0.00031   0.00031   0.35207
           R4           0.00031   0.00031   0.00031   0.35207
           A1           0.00000   0.00000   0.00000   0.00000   0.16000
           A2           0.00000   0.00000   0.00000   0.00000   0.00000
           A3           0.00000   0.00000   0.00000   0.00000   0.00000
           A4           0.00000   0.00000   0.00000   0.00000   0.00000
           A5           0.00000   0.00000   0.00000   0.00000   0.00000
           A6           0.00000   0.00000   0.00000   0.00000   0.00000
           D1           0.00000   0.00000   0.00000   0.00000   0.00000
           D2           0.00000   0.00000   0.00000   0.00000   0.00000
           D3           0.00000   0.00000   0.00000   0.00000   0.00000
           D4           0.00000   0.00000   0.00000   0.00000   0.00000
                          A2        A3        A4        A5        A6
           A2           0.16000
           A3           0.00000   0.16000
           A4           0.00000   0.00000   0.16000
           A5           0.00000   0.00000   0.00000   0.16000
           A6           0.00000   0.00000   0.00000   0.00000   0.16000
           D1           0.00000   0.00000   0.00000   0.00000   0.00000
           D2           0.00000   0.00000   0.00000   0.00000   0.00000
           D3           0.00000   0.00000   0.00000   0.00000   0.00000
           D4           0.00000   0.00000   0.00000   0.00000   0.00000
                          D1        D2        D3        D4
           D1           0.00276
           D2           0.00000   0.00276
           D3           0.00000   0.00000   0.00276
           D4           0.00000   0.00000   0.00000   0.00276
 ITU=  1  0
 Use linear search instead of GDIIS.
     Eigenvalues ---    0.05114   0.05745   0.08662   0.16000   0.16000
     Eigenvalues ---    0.35176   0.35176   0.35176   0.35299
 RFO step:  Lambda= 0.00000000D+00 EMin= 5.11424741D-02
 Quartic linear search produced a step of -0.00331.
 Iteration  1 RMS(Cart)=  0.00001295 RMS(Int)=  0.00000000
 Iteration  2 RMS(Cart)=  0.00000000 RMS(Int)=  0.00000000
 ClnCor:  largest displacement from symmetrization is 2.12D-14 for atom     3.
 Variable       Old X    -DE/DX   Delta X   Delta X   Delta X     New X
                                 (Linear)    (Quad)   (Total)
    R1        2.06123  -0.00001  -0.00002   0.00000  -0.00002   2.06120
    R2        2.06123  -0.00001  -0.00002   0.00000  -0.00002   2.06120
    R3        2.06123  -0.00001  -0.00002   0.00000  -0.00002   2.06120
    R4        2.06123  -0.00001  -0.00002   0.00000  -0.00002   2.06120
    A1        1.91063   0.00000   0.00000   0.00000   0.00000   1.91063
    A2        1.91063   0.00000   0.00000   0.00000   0.00000   1.91063
    A3        1.91063   0.00000   0.00000   0.00000   0.00000   1.91063
    A4        1.91063   0.00000   0.00000   0.00000   0.00000   1.91063
    A5        1.91063   0.00000   0.00000   0.00000   0.00000   1.91063
    A6        1.91063   0.00000   0.00000   0.00000   0.00000   1.91063
    D1       -2.09440   0.00000   0.00000   0.00000   0.00000  -2.09440
    D2        2.09440   0.00000   0.00000   0.00000   0.00000   2.09440
    D3       -2.09440   0.00000   0.00000   0.00000   0.00000  -2.09440
    D4        2.09440   0.00000   0.00000   0.00000   0.00000   2.09440
         Item               Value     Threshold  Converged?
 Maximum Force            0.000008     0.000450     YES
 RMS     Force            0.000005     0.000300     YES
 Maximum Displacement     0.000024     0.001800     YES
 RMS     Displacement     0.000013     0.001200     YES
 Predicted change in Energy=-4.054068D-10
 Optimization completed.
    -- Stationary point found.
                           ----------------------------
                           !   Optimized Parameters   !
                           ! (Angstroms and Degrees)  !
 --------------------------                            --------------------------
 ! Name  Definition              Value          Derivative Info.                !
 --------------------------------------------------------------------------------
 ! R1    R(1,2)                  1.0908         -DE/DX =    0.0                 !
 ! R2    R(1,3)                  1.0908         -DE/DX =    0.0                 !
 ! R3    R(1,4)                  1.0908         -DE/DX =    0.0                 !
 ! R4    R(1,5)                  1.0908         -DE/DX =    0.0                 !
 ! A1    A(2,1,3)              109.4712         -DE/DX =    0.0                 !
 ! A2    A(2,1,4)              109.4712         -DE/DX =    0.0                 !
 ! A3    A(2,1,5)              109.4712         -DE/DX =    0.0                 !
 ! A4    A(3,1,4)              109.4712         -DE/DX =    0.0                 !
 ! A5    A(3,1,5)              109.4712         -DE/DX =    0.0                 !
 ! A6    A(4,1,5)              109.4712         -DE/DX =    0.0                 !
 ! D1    D(2,1,4,3)           -120.0            -DE/DX =    0.0                 !
 ! D2    D(2,1,5,3)            120.0            -DE/DX =    0.0                 !
 ! D3    D(2,1,5,4)           -120.0            -DE/DX =    0.0                 !
 ! D4    D(3,1,5,4)            120.0            -DE/DX =    0.0                 !
 --------------------------------------------------------------------------------
 GradGradGradGradGradGradGradGradGradGradGradGradGradGradGradGradGradGrad

                          Input orientation:                          
 ---------------------------------------------------------------------
 Center     Atomic      Atomic             Coordinates (Angstroms)
 Number     Number       Type             X           Y           Z
 ---------------------------------------------------------------------
      1          6           0        0.000000    0.000000    0.000000
      2          1           0        0.000000    0.000000    1.090755
      3          1           0        1.028374    0.000000   -0.363585
      4          1           0       -0.514187   -0.890598   -0.363585
      5          1           0       -0.514187    0.890598   -0.363585
 ---------------------------------------------------------------------
                    Distance matrix (angstroms):
                    1          2          3          4          5
     1  C    0.000000
     2  H    1.090755   0.000000
     3  H    1.090755   1.781195   0.000000
     4  H    1.090755   1.781195   1.781195   0.000000
     5  H    1.090755   1.781195   1.781195   1.781195   0.000000
 Stoichiometry    CH4
 Framework group  TD[O(C),4C3(H)]
 Deg. of freedom     1
 Full point group                 TD      NOp  24
 Largest Abelian subgroup         D2      NOp   4
 Largest concise Abelian subgroup D2      NOp   4
                         Standard orientation:                         
 ---------------------------------------------------------------------
 Center     Atomic      Atomic             Coordinates (Angstroms)
 Number     Number       Type             X           Y           Z
 ---------------------------------------------------------------------
      1          6           0        0.000000    0.000000    0.000000
      2          1           0        0.629748    0.629748    0.629748
      3          1           0       -0.629748   -0.629748    0.629748
      4          1           0       -0.629748    0.629748   -0.629748
      5          1           0        0.629748   -0.629748   -0.629748
 ---------------------------------------------------------------------
 Rotational constants (GHZ):    158.0552397    158.0552397    158.0552397

 **********************************************************************

            Population analysis using the SCF density.

 **********************************************************************

 Orbital symmetries:
       Occupied  (A1) (A1) (T2) (T2) (T2)
       Virtual   (A1) (T2) (T2) (T2) (T2) (T2) (T2) (A1) (T2) (T2)
                 (T2) (A1) (E) (E) (T1) (T1) (T1) (T2) (T2) (T2)
                 (T2) (T2) (T2) (A1) (E) (E) (T2) (T2) (T2) (T2)
                 (T2) (T2) (A1) (T2) (T2) (T2) (A1)
 The electronic state is 1-A1.
 Alpha  occ. eigenvalues --  -10.15225  -0.69614  -0.39492  -0.39492  -0.39492
 Alpha virt. eigenvalues --    0.05349   0.12415   0.12415   0.12415   0.27888
 Alpha virt. eigenvalues --    0.27888   0.27888   0.54232   0.59121   0.59121
 Alpha virt. eigenvalues --    0.59121   0.74272   0.96482   0.96482   1.45478
 Alpha virt. eigenvalues --    1.45478   1.45478   1.46082   1.46082   1.46082
 Alpha virt. eigenvalues --    1.88929   1.88929   1.88929   2.17293   2.31430
 Alpha virt. eigenvalues --    2.31430   2.39765   2.39765   2.39765   2.52265
 Alpha virt. eigenvalues --    2.52265   2.52265   2.86597   3.78695   3.78695
 Alpha virt. eigenvalues --    3.78695  23.98878
          Condensed to atoms (all electrons):
               1          2          3          4          5
     1  C    4.827330   0.402474   0.402474   0.402474   0.402474
     2  H    0.402474   0.566848  -0.026210  -0.026210  -0.026210
     3  H    0.402474  -0.026210   0.566848  -0.026210  -0.026210
     4  H    0.402474  -0.026210  -0.026210   0.566848  -0.026210
     5  H    0.402474  -0.026210  -0.026210  -0.026210   0.566848
 Mulliken charges:
               1
     1  C   -0.437226
     2  H    0.109307
     3  H    0.109307
     4  H    0.109307
     5  H    0.109307
 Sum of Mulliken charges =   0.00000
 Mulliken charges with hydrogens summed into heavy atoms:
               1
     1  C    0.000000
 Electronic spatial extent (au):  <R**2>=             35.8686
 Charge=              0.0000 electrons
 Dipole moment (field-independent basis, Debye):
    X=              0.0000    Y=              0.0000    Z=              0.0000  Tot=              0.0000
 Quadrupole moment (field-independent basis, Debye-Ang):
   XX=             -8.4621   YY=             -8.4621   ZZ=             -8.4621
   XY=              0.0000   XZ=              0.0000   YZ=              0.0000
 Traceless Quadrupole moment (field-independent basis, Debye-Ang):
   XX=              0.0000   YY=              0.0000   ZZ=              0.0000
   XY=              0.0000   XZ=              0.0000   YZ=              0.0000
 Octapole moment (field-independent basis, Debye-Ang**2):
  XXX=              0.0000  YYY=              0.0000  ZZZ=              0.0000  XYY=              0.0000
  XXY=              0.0000  XXZ=              0.0000  XZZ=              0.0000  YZZ=              0.0000
  YYZ=              0.0000  XYZ=              0.7062
 Hexadecapole moment (field-independent basis, Debye-Ang**3):
 XXXX=            -16.9938 YYYY=            -16.9938 ZZZZ=            -16.9938 XXXY=              0.0000
 XXXZ=              0.0000 YYYX=              0.0000 YYYZ=              0.0000 ZZZX=              0.0000
 ZZZY=              0.0000 XXYY=             -5.1633 XXZZ=             -5.1633 YYZZ=             -5.1633
 XXYZ=              0.0000 YYXZ=              0.0000 ZZXY=              0.0000
 N-N= 1.342608950571D+01 E-N=-1.201115454854D+02  KE= 4.028443906125D+01
 Symmetry A    KE= 3.444400804457D+01
 Symmetry B1   KE= 1.946810338895D+00
 Symmetry B2   KE= 1.946810338895D+00
 Symmetry B3   KE= 1.946810338895D+00
 1\1\GINC-CH-NETTLE\FOpt\RB3LYP\6-311G(d,p)\C1H4\JS4811\11-Mar-2016\0\\
 # B3LYP/6-311G(d,p) Opt Freq\\Methane\\0,1\C,0.,0.,0.\H,0.,0.,1.090754
 9973\H,1.0283736736,0.,-0.3635849991\H,-0.5141868368,-0.890597726,-0.3
 635849991\H,-0.5141868368,0.890597726,-0.3635849991\\Version=EM64M-G09
 RevD.01\State=1-A1\HF=-40.5337484\RMSD=1.016e-09\RMSF=4.368e-06\Dipole
 =0.,0.,0.\Quadrupole=0.,0.,0.,0.,0.,0.\PG=TD [O(C1),4C3(H1)]\\@


 We're simply so accustomed to the marvels of everyday thought
 that we never wonder about it.
 -- Marvin Minsky in "Why people think computers are smart"
 Job cpu time:       0 days  0 hours  0 minutes  2.4 seconds.
 File lengths (MBytes):  RWF=      5 Int=      0 D2E=      0 Chk=      1 Scr=      1
 Normal termination of Gaussian 09 at Fri Mar 11 11:55:37 2016.
 Link1:  Proceeding to internal job step number  2.
 ----------------------------------------------------------------------
 #N Geom=AllCheck Guess=TCheck SCRF=Check GenChk RB3LYP/6-311G(d,p) Fre
 q
 ----------------------------------------------------------------------
 1/10=4,29=7,30=1,38=1,40=1/1,3;
 2/12=2,40=1/2;
 3/5=4,6=6,7=101,11=2,14=-4,16=1,25=1,30=1,70=2,71=2,74=-5,116=1,140=1/1,2,3;
 4/5=101/1;
 5/5=2,98=1/2;
 8/6=4,10=90,11=11/1;
 11/6=1,8=1,9=11,15=111,16=1/1,2,10;
 10/6=1/2;
 6/7=2,8=2,9=2,10=2,18=1,28=1/1;
 7/8=1,10=1,25=1/1,2,3,16;
 1/10=4,30=1/3;
 99//99;
 Structure from the checkpoint file:  "methane.chk"
 -------
 Methane
 -------
 Charge =  0 Multiplicity = 1
 Redundant internal coordinates found in file.
 C,0,0.,0.,0.
 H,0,0.,0.,1.0907549973
 H,0,1.0283736736,0.,-0.3635849991
 H,0,-0.5141868368,-0.890597726,-0.3635849991
 H,0,-0.5141868368,0.890597726,-0.3635849991
 Recover connectivity data from disk.

 GradGradGradGradGradGradGradGradGradGradGradGradGradGradGradGradGradGrad
 Berny optimization.
 Initialization pass.
                           ----------------------------
                           !    Initial Parameters    !
                           ! (Angstroms and Degrees)  !
 --------------------------                            --------------------------
 ! Name  Definition              Value          Derivative Info.                !
 --------------------------------------------------------------------------------
 ! R1    R(1,2)                  1.0908         calculate D2E/DX2 analytically  !
 ! R2    R(1,3)                  1.0908         calculate D2E/DX2 analytically  !
 ! R3    R(1,4)                  1.0908         calculate D2E/DX2 analytically  !
 ! R4    R(1,5)                  1.0908         calculate D2E/DX2 analytically  !
 ! A1    A(2,1,3)              109.4712         calculate D2E/DX2 analytically  !
 ! A2    A(2,1,4)              109.4712         calculate D2E/DX2 analytically  !
 ! A3    A(2,1,5)              109.4712         calculate D2E/DX2 analytically  !
 ! A4    A(3,1,4)              109.4712         calculate D2E/DX2 analytically  !
 ! A5    A(3,1,5)              109.4712         calculate D2E/DX2 analytically  !
 ! A6    A(4,1,5)              109.4712         calculate D2E/DX2 analytically  !
 ! D1    D(2,1,4,3)           -120.0            calculate D2E/DX2 analytically  !
 ! D2    D(2,1,5,3)            120.0            calculate D2E/DX2 analytically  !
 ! D3    D(2,1,5,4)           -120.0            calculate D2E/DX2 analytically  !
 ! D4    D(3,1,5,4)            120.0            calculate D2E/DX2 analytically  !
 --------------------------------------------------------------------------------
 Trust Radius=3.00D-01 FncErr=1.00D-07 GrdErr=1.00D-07
 Number of steps in this run=      2 maximum allowed number of steps=      2.
 GradGradGradGradGradGradGradGradGradGradGradGradGradGradGradGradGradGrad

                          Input orientation:                          
 ---------------------------------------------------------------------
 Center     Atomic      Atomic             Coordinates (Angstroms)
 Number     Number       Type             X           Y           Z
 ---------------------------------------------------------------------
      1          6           0        0.000000    0.000000    0.000000
      2          1           0        0.000000    0.000000    1.090755
      3          1           0        1.028374    0.000000   -0.363585
      4          1           0       -0.514187   -0.890598   -0.363585
      5          1           0       -0.514187    0.890598   -0.363585
 ---------------------------------------------------------------------
                    Distance matrix (angstroms):
                    1          2          3          4          5
     1  C    0.000000
     2  H    1.090755   0.000000
     3  H    1.090755   1.781195   0.000000
     4  H    1.090755   1.781195   1.781195   0.000000
     5  H    1.090755   1.781195   1.781195   1.781195   0.000000
 Stoichiometry    CH4
 Framework group  TD[O(C),4C3(H)]
 Deg. of freedom     1
 Full point group                 TD      NOp  24
 Largest Abelian subgroup         D2      NOp   4
 Largest concise Abelian subgroup D2      NOp   4
                         Standard orientation:                         
 ---------------------------------------------------------------------
 Center     Atomic      Atomic             Coordinates (Angstroms)
 Number     Number       Type             X           Y           Z
 ---------------------------------------------------------------------
      1          6           0        0.000000    0.000000    0.000000
      2          1           0        0.629748    0.629748    0.629748
      3          1           0       -0.629748   -0.629748    0.629748
      4          1           0       -0.629748    0.629748   -0.629748
      5          1           0        0.629748   -0.629748   -0.629748
 ---------------------------------------------------------------------
 Rotational constants (GHZ):    158.0552397    158.0552397    158.0552397
 Standard basis: 6-311G(d,p) (5D, 7F)
 There are    13 symmetry adapted cartesian basis functions of A   symmetry.
 There are    10 symmetry adapted cartesian basis functions of B1  symmetry.
 There are    10 symmetry adapted cartesian basis functions of B2  symmetry.
 There are    10 symmetry adapted cartesian basis functions of B3  symmetry.
 There are    12 symmetry adapted basis functions of A   symmetry.
 There are    10 symmetry adapted basis functions of B1  symmetry.
 There are    10 symmetry adapted basis functions of B2  symmetry.
 There are    10 symmetry adapted basis functions of B3  symmetry.
    42 basis functions,    64 primitive gaussians,    43 cartesian basis functions
     5 alpha electrons        5 beta electrons
       nuclear repulsion energy        13.4260895057 Hartrees.
 NAtoms=    5 NActive=    5 NUniq=    2 SFac= 4.00D+00 NAtFMM=   60 NAOKFM=F Big=F
 Integral buffers will be    131072 words long.
 Raffenetti 2 integral format.
 Two-electron integral symmetry is turned on.
 One-electron integrals computed using PRISM.
 NBasis=    42 RedAO= T EigKep=  1.28D-02  NBF=    12    10    10    10
 NBsUse=    42 1.00D-06 EigRej= -1.00D+00 NBFU=    12    10    10    10
 Initial guess from the checkpoint file:  "methane.chk"
 B after Tr=     0.000000    0.000000    0.000000
         Rot=    1.000000    0.000000    0.000000    0.000000 Ang=   0.00 deg.
 Initial guess orbital symmetries:
       Occupied  (A1) (A1) (T2) (T2) (T2)
       Virtual   (A1) (T2) (T2) (T2) (T2) (T2) (T2) (A1) (T2) (T2)
                 (T2) (A1) (E) (E) (T1) (T1) (T1) (T2) (T2) (T2)
                 (T2) (T2) (T2) (A1) (E) (E) (T2) (T2) (T2) (T2)
                 (T2) (T2) (A1) (T2) (T2) (T2) (A1)
 Keep R1 ints in memory in symmetry-blocked form, NReq=1297003.
 Requested convergence on RMS density matrix=1.00D-08 within 128 cycles.
 Requested convergence on MAX density matrix=1.00D-06.
 Requested convergence on             energy=1.00D-06.
 No special actions if energy rises.
 Skip diagonalization as Alpha Fock matrix is already diagonal.
 SCF Done:  E(RB3LYP) =  -40.5337484279     A.U. after    1 cycles
            NFock=  1  Conv=0.52D-18     -V/T= 2.0062
 DoSCS=F DFT=T ScalE2(SS,OS)=  1.000000  1.000000
 Range of M.O.s used for correlation:     1    42
 NBasis=    42 NAE=     5 NBE=     5 NFC=     0 NFV=     0
 NROrb=     42 NOA=     5 NOB=     5 NVA=    37 NVB=    37
 Symmetrizing basis deriv contribution to polar:
 IMax=3 JMax=2 DiffMx= 0.00D+00
 G2DrvN: will do     6 centers at a time, making    1 passes.
 Calling FoFCou, ICntrl=  3107 FMM=F I1Cent=   0 AccDes= 0.00D+00.
 End of G2Drv F.D. properties file   721 does not exist.
 End of G2Drv F.D. properties file   722 does not exist.
 End of G2Drv F.D. properties file   788 does not exist.
          IDoAtm=11111
          Differentiating once with respect to electric field.
                with respect to dipole field.
          Differentiating once with respect to nuclear coordinates.
 Keep R1 ints in memory in symmetry-blocked form, NReq=1272422.
          There are     9 degrees of freedom in the 1st order CPHF.  IDoFFX=4 NUNeed=     9.
      9 vectors produced by pass  0 Test12= 2.06D-15 1.11D-08 XBig12= 6.97D+00 1.37D+00.
 AX will form     9 AO Fock derivatives at one time.
      9 vectors produced by pass  1 Test12= 2.06D-15 1.11D-08 XBig12= 1.90D-01 1.87D-01.
      9 vectors produced by pass  2 Test12= 2.06D-15 1.11D-08 XBig12= 1.02D-03 1.51D-02.
      9 vectors produced by pass  3 Test12= 2.06D-15 1.11D-08 XBig12= 1.09D-06 3.58D-04.
      9 vectors produced by pass  4 Test12= 2.06D-15 1.11D-08 XBig12= 5.49D-10 8.14D-06.
      4 vectors produced by pass  5 Test12= 2.06D-15 1.11D-08 XBig12= 1.55D-13 1.64D-07.
 InvSVY:  IOpt=1 It=  1 EMax= 8.88D-16
 Solved reduced A of dimension    49 with     9 vectors.
 Isotropic polarizability for W=    0.000000       13.79 Bohr**3.
 End of Minotr F.D. properties file   721 does not exist.
 End of Minotr F.D. properties file   722 does not exist.
 End of Minotr F.D. properties file   788 does not exist.

 **********************************************************************

            Population analysis using the SCF density.

 **********************************************************************

 Orbital symmetries:
       Occupied  (A1) (A1) (T2) (T2) (T2)
       Virtual   (A1) (T2) (T2) (T2) (T2) (T2) (T2) (A1) (T2) (T2)
                 (T2) (A1) (E) (E) (T1) (T1) (T1) (T2) (T2) (T2)
                 (T2) (T2) (T2) (A1) (E) (E) (T2) (T2) (T2) (T2)
                 (T2) (T2) (A1) (T2) (T2) (T2) (A1)
 The electronic state is 1-A1.
 Alpha  occ. eigenvalues --  -10.15225  -0.69614  -0.39492  -0.39492  -0.39492
 Alpha virt. eigenvalues --    0.05349   0.12415   0.12415   0.12415   0.27888
 Alpha virt. eigenvalues --    0.27888   0.27888   0.54232   0.59121   0.59121
 Alpha virt. eigenvalues --    0.59121   0.74272   0.96482   0.96482   1.45478
 Alpha virt. eigenvalues --    1.45478   1.45478   1.46082   1.46082   1.46082
 Alpha virt. eigenvalues --    1.88929   1.88929   1.88929   2.17293   2.31430
 Alpha virt. eigenvalues --    2.31430   2.39765   2.39765   2.39765   2.52265
 Alpha virt. eigenvalues --    2.52265   2.52265   2.86597   3.78695   3.78695
 Alpha virt. eigenvalues --    3.78695  23.98878
          Condensed to atoms (all electrons):
               1          2          3          4          5
     1  C    4.827330   0.402474   0.402474   0.402474   0.402474
     2  H    0.402474   0.566848  -0.026210  -0.026210  -0.026210
     3  H    0.402474  -0.026210   0.566848  -0.026210  -0.026210
     4  H    0.402474  -0.026210  -0.026210   0.566848  -0.026210
     5  H    0.402474  -0.026210  -0.026210  -0.026210   0.566848
 Mulliken charges:
               1
     1  C   -0.437226
     2  H    0.109307
     3  H    0.109307
     4  H    0.109307
     5  H    0.109307
 Sum of Mulliken charges =   0.00000
 Mulliken charges with hydrogens summed into heavy atoms:
               1
     1  C    0.000000
 APT charges:
               1
     1  C   -0.003745
     2  H    0.000936
     3  H    0.000936
     4  H    0.000936
     5  H    0.000936
 Sum of APT charges =   0.00000
 APT charges with hydrogens summed into heavy atoms:
               1
     1  C    0.000000
 Electronic spatial extent (au):  <R**2>=             35.8686
 Charge=              0.0000 electrons
 Dipole moment (field-independent basis, Debye):
    X=              0.0000    Y=              0.0000    Z=              0.0000  Tot=              0.0000
 Quadrupole moment (field-independent basis, Debye-Ang):
   XX=             -8.4621   YY=             -8.4621   ZZ=             -8.4621
   XY=              0.0000   XZ=              0.0000   YZ=              0.0000
 Traceless Quadrupole moment (field-independent basis, Debye-Ang):
   XX=              0.0000   YY=              0.0000   ZZ=              0.0000
   XY=              0.0000   XZ=              0.0000   YZ=              0.0000
 Octapole moment (field-independent basis, Debye-Ang**2):
  XXX=              0.0000  YYY=              0.0000  ZZZ=              0.0000  XYY=              0.0000
  XXY=              0.0000  XXZ=              0.0000  XZZ=              0.0000  YZZ=              0.0000
  YYZ=              0.0000  XYZ=              0.7062
 Hexadecapole moment (field-independent basis, Debye-Ang**3):
 XXXX=            -16.9938 YYYY=            -16.9938 ZZZZ=            -16.9938 XXXY=              0.0000
 XXXZ=              0.0000 YYYX=              0.0000 YYYZ=              0.0000 ZZZX=              0.0000
 ZZZY=              0.0000 XXYY=             -5.1633 XXZZ=             -5.1633 YYZZ=             -5.1633
 XXYZ=              0.0000 YYXZ=              0.0000 ZZXY=              0.0000
 N-N= 1.342608950571D+01 E-N=-1.201115454854D+02  KE= 4.028443906125D+01
 Symmetry A    KE= 3.444400804457D+01
 Symmetry B1   KE= 1.946810338895D+00
 Symmetry B2   KE= 1.946810338895D+00
 Symmetry B3   KE= 1.946810338895D+00
  Exact polarizability:  13.787   0.000  13.787   0.000   0.000  13.787
 Approx polarizability:  16.756   0.000  16.756   0.000   0.000  16.756
 Calling FoFJK, ICntrl=    100127 FMM=F ISym2X=1 I1Cent= 0 IOpClX= 0 NMat=1 NMatS=1 NMatT=0.
 Full mass-weighted force constant matrix:
 Low frequencies ---   -0.0006   -0.0004   -0.0003   58.9692   58.9692   58.9692
 Low frequencies --- 1341.7771 1341.7771 1341.7771
 Diagonal vibrational polarizability:
        0.3296168       0.3296168       0.3296168
 Harmonic frequencies (cm**-1), IR intensities (KM/Mole), Raman scattering
 activities (A**4/AMU), depolarization ratios for plane and unpolarized
 incident light, reduced masses (AMU), force constants (mDyne/A),
 and normal coordinates:
                      1                      2                      3
                     T2                     T2                     T2
 Frequencies --   1341.7771              1341.7771              1341.7771
 Red. masses --      1.1798                 1.1798                 1.1798
 Frc consts  --      1.2514                 1.2514                 1.2514
 IR Inten    --     16.9212                16.9212                16.9212
  Atom  AN      X      Y      Z        X      Y      Z        X      Y      Z
     1   6     0.03   0.07   0.10     0.01   0.10  -0.08     0.12  -0.02  -0.02
     2   1     0.23   0.01  -0.10     0.03  -0.43   0.42    -0.44   0.25   0.24
     3   1    -0.13  -0.35  -0.48     0.31  -0.14   0.03    -0.37   0.33  -0.13
     4   1    -0.04  -0.45  -0.37    -0.34  -0.16   0.05    -0.36  -0.12   0.32
     5   1    -0.40  -0.09  -0.21    -0.06  -0.45   0.40    -0.29  -0.20  -0.21
                      4                      5                      6
                      E                      E                     A1
 Frequencies --   1561.2621              1561.2621              3026.1616
 Red. masses --      1.0078                 1.0078                 1.0078
 Frc consts  --      1.4474                 1.4474                 5.4378
 IR Inten    --      0.0000                 0.0000                 0.0000
  Atom  AN      X      Y      Z        X      Y      Z        X      Y      Z
     1   6     0.00   0.00   0.00     0.00   0.00   0.00     0.00   0.00   0.00
     2   1    -0.28   0.40  -0.11    -0.29  -0.10   0.39    -0.29  -0.29  -0.29
     3   1     0.28  -0.40  -0.11     0.29   0.10   0.39     0.29   0.29  -0.29
     4   1     0.28   0.40   0.11     0.29  -0.10  -0.39     0.29  -0.29   0.29
     5   1    -0.28  -0.40   0.11    -0.29   0.10  -0.39    -0.29   0.29   0.29
                      7                      8                      9
                     T2                     T2                     T2
 Frequencies --   3132.3359              3132.3359              3132.3359
 Red. masses --      1.1010                 1.1010                 1.1010
 Frc consts  --      6.3645                 6.3645                 6.3645
 IR Inten    --     27.9584                27.9584                27.9584
  Atom  AN      X      Y      Z        X      Y      Z        X      Y      Z
     1   6     0.00  -0.08   0.05     0.00  -0.05  -0.08     0.09   0.00   0.00
     2   1     0.10   0.08   0.11     0.39   0.38   0.37    -0.29  -0.31  -0.31
     3   1     0.40   0.38  -0.39    -0.11  -0.12   0.10    -0.27  -0.29   0.29
     4   1    -0.41   0.39  -0.40     0.08  -0.09   0.07    -0.27   0.29  -0.29
     5   1    -0.10   0.08   0.11    -0.42   0.41   0.40    -0.25   0.27   0.27

 -------------------
 - Thermochemistry -
 -------------------
 Temperature   298.150 Kelvin.  Pressure   1.00000 Atm.
 Atom     1 has atomic number  6 and mass  12.00000
 Atom     2 has atomic number  1 and mass   1.00783
 Atom     3 has atomic number  1 and mass   1.00783
 Atom     4 has atomic number  1 and mass   1.00783
 Atom     5 has atomic number  1 and mass   1.00783
 Molecular mass:    16.03130 amu.
 Principal axes and moments of inertia in atomic units:
                           1         2         3
     Eigenvalues --    11.41842  11.41842  11.41842
           X           -0.24709   0.27688   0.92859
           Y            0.96200   0.18498   0.20083
           Z           -0.11617   0.94293  -0.31207
 This molecule is a spherical top.
 Rotational symmetry number 12.
 Rotational temperatures (Kelvin)      7.58545     7.58545     7.58545
 Rotational constants (GHZ):         158.05524   158.05524   158.05524
 Zero-point vibrational energy     117060.7 (Joules/Mol)
                                   27.97818 (Kcal/Mol)
 Vibrational temperatures:   1930.52  1930.52  1930.52  2246.31  2246.31
          (Kelvin)           4353.97  4506.73  4506.73  4506.73
 
 Zero-point correction=                           0.044586 (Hartree/Particle)
 Thermal correction to Energy=                    0.047455
 Thermal correction to Enthalpy=                  0.048399
 Thermal correction to Gibbs Free Energy=         0.027269
 Sum of electronic and zero-point Energies=            -40.489162
 Sum of electronic and thermal Energies=               -40.486294
 Sum of electronic and thermal Enthalpies=             -40.485350
 Sum of electronic and thermal Free Energies=          -40.506480
 
                     E (Thermal)             CV                S
                      KCal/Mol        Cal/Mol-Kelvin    Cal/Mol-Kelvin
 Total                   29.778              6.469             44.472
 Electronic               0.000              0.000              0.000
 Translational            0.889              2.981             34.261
 Rotational               0.889              2.981             10.124
 Vibrational             28.001              0.508              0.087
                       Q            Log10(Q)             Ln(Q)
 Total Bot       0.286636D-12        -12.542670        -28.880564
 Total V=0       0.923544D+08          7.965457         18.341144
 Vib (Bot)       0.312139D-20        -20.505652        -47.216009
 Vib (V=0)       0.100572D+01          0.002475          0.005699
 Electronic      0.100000D+01          0.000000          0.000000
 Translational   0.252295D+07          6.401908         14.740939
 Rotational      0.363977D+02          1.561074          3.594506
 ***** Axes restored to original set *****
 -------------------------------------------------------------------
 Center     Atomic                   Forces (Hartrees/Bohr)
 Number     Number              X              Y              Z
 -------------------------------------------------------------------
      1        6           0.000000000    0.000000000    0.000000000
      2        1           0.000000000    0.000000000   -0.000008459
      3        1          -0.000007975    0.000000000    0.000002820
      4        1           0.000003988    0.000006907    0.000002820
      5        1           0.000003988   -0.000006907    0.000002820
 -------------------------------------------------------------------
 Cartesian Forces:  Max     0.000008459 RMS     0.000004368
 FormGI is forming the generalized inverse of G from B-inverse, IUseBI=4.

 GradGradGradGradGradGradGradGradGradGradGradGradGradGradGradGradGradGrad
 Berny optimization.
 Internal  Forces:  Max     0.000008459 RMS     0.000004522
 Search for a local minimum.
 Step number   1 out of a maximum of    2
 All quantities printed in internal units (Hartrees-Bohrs-Radians)
 Second derivative matrix not updated -- analytic derivatives used.
 The second derivative matrix:
                          R1        R2        R3        R4        A1
           R1           0.34227
           R2           0.00233   0.34227
           R3           0.00233   0.00233   0.34227
           R4           0.00233   0.00233   0.00233   0.34227
           A1           0.00195   0.00195  -0.00123  -0.00268   0.01952
           A2           0.00306  -0.00079   0.00341  -0.00568  -0.00867
           A3           0.00598  -0.00480  -0.00531   0.00413  -0.01294
           A4          -0.00079   0.00306   0.00341  -0.00568  -0.00867
           A5          -0.00480   0.00598  -0.00531   0.00413  -0.01294
           A6          -0.00540  -0.00540   0.00504   0.00577   0.02369
           D1          -0.00378  -0.00378  -0.00267   0.01023  -0.01329
           D2           0.00311   0.00311  -0.00801   0.00178   0.00806
           D3          -0.00410   0.00722  -0.00400   0.00089   0.00403
           D4          -0.00722   0.00410   0.00400  -0.00089  -0.00403
                          A2        A3        A4        A5        A6
           A2           0.03679
           A3          -0.02236   0.07187
           A4          -0.00206   0.02457   0.03679
           A5           0.02457  -0.03486  -0.02236   0.07187
           A6          -0.02827  -0.02629  -0.02827  -0.02629   0.08543
           D1          -0.01065   0.01449  -0.01065   0.01449   0.00562
           D2          -0.00926   0.00682  -0.00926   0.00682  -0.00318
           D3          -0.01405  -0.00053   0.00479   0.00735  -0.00159
           D4          -0.00479  -0.00735   0.01405   0.00053   0.00159
                          D1        D2        D3        D4
           D1           0.02933
           D2           0.00147   0.01823
           D3           0.00074   0.00911   0.01851
           D4          -0.00074  -0.00911   0.00939   0.01851
 ITU=  0
     Eigenvalues ---    0.03735   0.04207   0.06391   0.12992   0.13045
     Eigenvalues ---    0.34087   0.34089   0.34117   0.34927
 Angle between quadratic step and forces=   0.00 degrees.
 Linear search not attempted -- first point.
 Iteration  1 RMS(Cart)=  0.00001295 RMS(Int)=  0.00000000
 Iteration  2 RMS(Cart)=  0.00000000 RMS(Int)=  0.00000000
 ClnCor:  largest displacement from symmetrization is 1.19D-13 for atom     4.
 Variable       Old X    -DE/DX   Delta X   Delta X   Delta X     New X
                                 (Linear)    (Quad)   (Total)
    R1        2.06123  -0.00001   0.00000  -0.00002  -0.00002   2.06120
    R2        2.06123  -0.00001   0.00000  -0.00002  -0.00002   2.06120
    R3        2.06123  -0.00001   0.00000  -0.00002  -0.00002   2.06120
    R4        2.06123  -0.00001   0.00000  -0.00002  -0.00002   2.06120
    A1        1.91063   0.00000   0.00000   0.00000   0.00000   1.91063
    A2        1.91063   0.00000   0.00000   0.00000   0.00000   1.91063
    A3        1.91063   0.00000   0.00000   0.00000   0.00000   1.91063
    A4        1.91063   0.00000   0.00000   0.00000   0.00000   1.91063
    A5        1.91063   0.00000   0.00000   0.00000   0.00000   1.91063
    A6        1.91063   0.00000   0.00000   0.00000   0.00000   1.91063
    D1       -2.09440   0.00000   0.00000   0.00000   0.00000  -2.09440
    D2        2.09440   0.00000   0.00000   0.00000   0.00000   2.09440
    D3       -2.09440   0.00000   0.00000   0.00000   0.00000  -2.09440
    D4        2.09440   0.00000   0.00000   0.00000   0.00000   2.09440
         Item               Value     Threshold  Converged?
 Maximum Force            0.000008     0.000450     YES
 RMS     Force            0.000005     0.000300     YES
 Maximum Displacement     0.000024     0.001800     YES
 RMS     Displacement     0.000013     0.001200     YES
 Predicted change in Energy=-4.097615D-10
 Optimization completed.
    -- Stationary point found.
                           ----------------------------
                           !   Optimized Parameters   !
                           ! (Angstroms and Degrees)  !
 --------------------------                            --------------------------
 ! Name  Definition              Value          Derivative Info.                !
 --------------------------------------------------------------------------------
 ! R1    R(1,2)                  1.0908         -DE/DX =    0.0                 !
 ! R2    R(1,3)                  1.0908         -DE/DX =    0.0                 !
 ! R3    R(1,4)                  1.0908         -DE/DX =    0.0                 !
 ! R4    R(1,5)                  1.0908         -DE/DX =    0.0                 !
 ! A1    A(2,1,3)              109.4712         -DE/DX =    0.0                 !
 ! A2    A(2,1,4)              109.4712         -DE/DX =    0.0                 !
 ! A3    A(2,1,5)              109.4712         -DE/DX =    0.0                 !
 ! A4    A(3,1,4)              109.4712         -DE/DX =    0.0                 !
 ! A5    A(3,1,5)              109.4712         -DE/DX =    0.0                 !
 ! A6    A(4,1,5)              109.4712         -DE/DX =    0.0                 !
 ! D1    D(2,1,4,3)           -120.0            -DE/DX =    0.0                 !
 ! D2    D(2,1,5,3)            120.0            -DE/DX =    0.0                 !
 ! D3    D(2,1,5,4)           -120.0            -DE/DX =    0.0                 !
 ! D4    D(3,1,5,4)            120.0            -DE/DX =    0.0                 !
 --------------------------------------------------------------------------------
 GradGradGradGradGradGradGradGradGradGradGradGradGradGradGradGradGradGrad

 1\1\GINC-CH-NETTLE\Freq\RB3LYP\6-311G(d,p)\C1H4\JS4811\11-Mar-2016\0\\
 #N Geom=AllCheck Guess=TCheck SCRF=Check GenChk RB3LYP/6-311G(d,p) Fre
 q\\Methane\\0,1\C,0.,0.,0.\H,0.,0.,1.0907549973\H,1.0283736736,0.,-0.3
 635849991\H,-0.5141868368,-0.890597726,-0.3635849991\H,-0.5141868368,0
 .890597726,-0.3635849991\\Version=EM64M-G09RevD.01\State=1-A1\HF=-40.5
 337484\RMSD=5.169e-19\RMSF=4.368e-06\ZeroPoint=0.0445861\Thermal=0.047
 4546\Dipole=0.,0.,0.\DipoleDeriv=-0.0037448,0.,0.,0.,-0.0037448,0.,0.,
 0.,-0.0037448,0.077087,0.,0.,0.,0.077087,0.,0.,0.,-0.1513655,-0.125981
 9,0.,0.0717957,0.,0.077087,0.,0.0717957,0.,0.0517034,0.0263198,-0.0879
 314,-0.0358979,-0.0879314,-0.0752147,-0.0621769,-0.0358979,-0.0621769,
 0.0517034,0.0263198,0.0879314,-0.0358979,0.0879314,-0.0752147,0.062176
 9,-0.0358979,0.0621769,0.0517034\Polar=13.7868447,0.,13.7868447,0.,0.,
 13.7868447\PG=TD [O(C1),4C3(H1)]\NImag=0\\0.54163393,0.,0.54163393,0.,
 0.,0.54163393,-0.04529741,0.,0.,0.04483499,0.,-0.04529741,0.,0.,0.0448
 3499,0.,0.,-0.31563063,0.,0.,0.34226841,-0.28559360,0.,0.08495753,0.00
 202304,0.,-0.00066399,0.30922025,0.,-0.04529741,0.,0.,-0.00171476,0.,0
 .,0.04483499,0.08495753,0.,-0.07533443,0.03150035,0.,-0.00887926,-0.09
 347431,0.,0.07788315,-0.10537146,-0.10405130,-0.04247877,-0.00078031,0
 .00161851,0.00033200,-0.01282484,-0.02518042,-0.01149179,0.11093130,-0
 .10405130,-0.22551955,-0.07357538,0.00161851,0.00108859,0.00057503,0.0
 0108165,0.00108859,0.00133427,0.11448218,0.24312394,-0.04247877,-0.073
 57538,-0.07533443,-0.01575018,-0.02728010,-0.00887926,0.00459038,0.010
 61932,0.00316527,0.04673715,0.08095112,0.07788315,-0.10537146,0.104051
 30,-0.04247877,-0.00078031,-0.00161851,0.00033200,-0.01282484,0.025180
 42,-0.01149179,0.00804531,-0.01313104,0.00690141,0.11093130,0.10405130
 ,-0.22551955,0.07357538,-0.00161851,0.00108859,-0.00057503,-0.00108165
 ,0.00108859,-0.00133427,0.01313104,-0.01978156,0.00928505,-0.11448218,
 0.24312394,-0.04247877,0.07357538,-0.07533443,-0.01575018,0.02728010,-
 0.00887926,0.00459038,-0.01061932,0.00316527,0.00690141,-0.00928505,0.
 00316527,0.04673715,-0.08095112,0.07788315\\0.,0.,0.,0.,0.,0.00000846,
 0.00000798,0.,-0.00000282,-0.00000399,-0.00000691,-0.00000282,-0.00000
 399,0.00000691,-0.00000282\\\@


 It takes a long time to grow an old friend.
                            -- John Leonard
 Job cpu time:       0 days  0 hours  0 minutes  3.6 seconds.
 File lengths (MBytes):  RWF=      5 Int=      0 D2E=      0 Chk=      1 Scr=      1
 Normal termination of Gaussian 09 at Fri Mar 11 11:55:42 2016.
