 Entering Gaussian System, Link 0=g09
 Input=methane_nbo.com
 Output=methane_nbo.log
 Initial command:
 /Applications/g09/l1.exe "/Users/js4811/Scratch/Gau-4725.inp" -scrdir="/Users/js4811/Scratch/"
 Entering Link 1 = /Applications/g09/l1.exe PID=      4726.
  
 Copyright (c) 1988,1990,1992,1993,1995,1998,2003,2009,2013,
            Gaussian, Inc.  All Rights Reserved.
  
 This is part of the Gaussian(R) 09 program.  It is based on
 the Gaussian(R) 03 system (copyright 2003, Gaussian, Inc.),
 the Gaussian(R) 98 system (copyright 1998, Gaussian, Inc.),
 the Gaussian(R) 94 system (copyright 1995, Gaussian, Inc.),
 the Gaussian 92(TM) system (copyright 1992, Gaussian, Inc.),
 the Gaussian 90(TM) system (copyright 1990, Gaussian, Inc.),
 the Gaussian 88(TM) system (copyright 1988, Gaussian, Inc.),
 the Gaussian 86(TM) system (copyright 1986, Carnegie Mellon
 University), and the Gaussian 82(TM) system (copyright 1983,
 Carnegie Mellon University). Gaussian is a federally registered
 trademark of Gaussian, Inc.
  
 This software contains proprietary and confidential information,
 including trade secrets, belonging to Gaussian, Inc.
  
 This software is provided under written license and may be
 used, copied, transmitted, or stored only in accord with that
 written license.
  
 The following legend is applicable only to US Government
 contracts under FAR:
  
                    RESTRICTED RIGHTS LEGEND
  
 Use, reproduction and disclosure by the US Government is
 subject to restrictions as set forth in subparagraphs (a)
 and (c) of the Commercial Computer Software - Restricted
 Rights clause in FAR 52.227-19.
  
 Gaussian, Inc.
 340 Quinnipiac St., Bldg. 40, Wallingford CT 06492
  
  
 ---------------------------------------------------------------
 Warning -- This program may not be used in any manner that
 competes with the business of Gaussian, Inc. or will provide
 assistance to any competitor of Gaussian, Inc.  The licensee
 of this program is prohibited from giving any competitor of
 Gaussian, Inc. access to this program.  By using this program,
 the user acknowledges that Gaussian, Inc. is engaged in the
 business of creating and licensing software in the field of
 computational chemistry and represents and warrants to the
 licensee that it is not a competitor of Gaussian, Inc. and that
 it will not use this program in any manner prohibited above.
 ---------------------------------------------------------------
  

 Cite this work as:
 Gaussian 09, Revision D.01,
 M. J. Frisch, G. W. Trucks, H. B. Schlegel, G. E. Scuseria, 
 M. A. Robb, J. R. Cheeseman, G. Scalmani, V. Barone, B. Mennucci, 
 G. A. Petersson, H. Nakatsuji, M. Caricato, X. Li, H. P. Hratchian, 
 A. F. Izmaylov, J. Bloino, G. Zheng, J. L. Sonnenberg, M. Hada, 
 M. Ehara, K. Toyota, R. Fukuda, J. Hasegawa, M. Ishida, T. Nakajima, 
 Y. Honda, O. Kitao, H. Nakai, T. Vreven, J. A. Montgomery, Jr., 
 J. E. Peralta, F. Ogliaro, M. Bearpark, J. J. Heyd, E. Brothers, 
 K. N. Kudin, V. N. Staroverov, T. Keith, R. Kobayashi, J. Normand, 
 K. Raghavachari, A. Rendell, J. C. Burant, S. S. Iyengar, J. Tomasi, 
 M. Cossi, N. Rega, J. M. Millam, M. Klene, J. E. Knox, J. B. Cross, 
 V. Bakken, C. Adamo, J. Jaramillo, R. Gomperts, R. E. Stratmann, 
 O. Yazyev, A. J. Austin, R. Cammi, C. Pomelli, J. W. Ochterski, 
 R. L. Martin, K. Morokuma, V. G. Zakrzewski, G. A. Voth, 
 P. Salvador, J. J. Dannenberg, S. Dapprich, A. D. Daniels, 
 O. Farkas, J. B. Foresman, J. V. Ortiz, J. Cioslowski, 
 and D. J. Fox, Gaussian, Inc., Wallingford CT, 2013.
 
 ******************************************
 Gaussian 09:  EM64M-G09RevD.01 24-Apr-2013
                14-Mar-2016 
 ******************************************
 %chk=methane_nbo.chk
 -------------------------------------------------
 # B3LYP/6-311G(d,p) Geom=Check Guess=Read Pop=NPA
 -------------------------------------------------
 1/29=2,38=1/1;
 2/12=2,40=1/2;
 3/5=4,6=6,7=101,11=2,14=-4,16=1,25=1,30=1,74=-5,116=-2/1,2,3;
 4/5=1/1;
 5/5=2,38=6/2;
 6/7=2,8=2,9=2,10=2,28=1,40=-1/1,7;
 99/5=1,9=1/99;
 -------
 Methane
 -------
 Structure from the checkpoint file:  "methane_nbo.chk"
 Charge =  0 Multiplicity = 1
 Redundant internal coordinates found in file.
 C,0,0.,0.,0.
 H,0,0.,0.,1.0907549973
 H,0,1.0283736736,0.,-0.3635849991
 H,0,-0.5141868368,-0.890597726,-0.3635849991
 H,0,-0.5141868368,0.890597726,-0.3635849991
 Recover connectivity data from disk.
                          Input orientation:                          
 ---------------------------------------------------------------------
 Center     Atomic      Atomic             Coordinates (Angstroms)
 Number     Number       Type             X           Y           Z
 ---------------------------------------------------------------------
      1          6           0        0.000000    0.000000    0.000000
      2          1           0        0.000000    0.000000    1.090755
      3          1           0        1.028374    0.000000   -0.363585
      4          1           0       -0.514187   -0.890598   -0.363585
      5          1           0       -0.514187    0.890598   -0.363585
 ---------------------------------------------------------------------
                    Distance matrix (angstroms):
                    1          2          3          4          5
     1  C    0.000000
     2  H    1.090755   0.000000
     3  H    1.090755   1.781195   0.000000
     4  H    1.090755   1.781195   1.781195   0.000000
     5  H    1.090755   1.781195   1.781195   1.781195   0.000000
 Stoichiometry    CH4
 Framework group  TD[O(C),4C3(H)]
 Deg. of freedom     1
 Full point group                 TD      NOp  24
 Largest Abelian subgroup         D2      NOp   4
 Largest concise Abelian subgroup D2      NOp   4
                         Standard orientation:                         
 ---------------------------------------------------------------------
 Center     Atomic      Atomic             Coordinates (Angstroms)
 Number     Number       Type             X           Y           Z
 ---------------------------------------------------------------------
      1          6           0        0.000000    0.000000    0.000000
      2          1           0        0.629748    0.629748    0.629748
      3          1           0       -0.629748   -0.629748    0.629748
      4          1           0       -0.629748    0.629748   -0.629748
      5          1           0        0.629748   -0.629748   -0.629748
 ---------------------------------------------------------------------
 Rotational constants (GHZ):    158.0552397    158.0552397    158.0552397
 Standard basis: 6-311G(d,p) (5D, 7F)
 There are    13 symmetry adapted cartesian basis functions of A   symmetry.
 There are    10 symmetry adapted cartesian basis functions of B1  symmetry.
 There are    10 symmetry adapted cartesian basis functions of B2  symmetry.
 There are    10 symmetry adapted cartesian basis functions of B3  symmetry.
 There are    12 symmetry adapted basis functions of A   symmetry.
 There are    10 symmetry adapted basis functions of B1  symmetry.
 There are    10 symmetry adapted basis functions of B2  symmetry.
 There are    10 symmetry adapted basis functions of B3  symmetry.
    42 basis functions,    64 primitive gaussians,    43 cartesian basis functions
     5 alpha electrons        5 beta electrons
       nuclear repulsion energy        13.4260895057 Hartrees.
 NAtoms=    5 NActive=    5 NUniq=    2 SFac= 4.00D+00 NAtFMM=   60 NAOKFM=F Big=F
 Integral buffers will be    131072 words long.
 Raffenetti 2 integral format.
 Two-electron integral symmetry is turned on.
 One-electron integrals computed using PRISM.
 NBasis=    42 RedAO= T EigKep=  1.28D-02  NBF=    12    10    10    10
 NBsUse=    42 1.00D-06 EigRej= -1.00D+00 NBFU=    12    10    10    10
 Initial guess from the checkpoint file:  "methane_nbo.chk"
 B after Tr=     0.000000    0.000000    0.000000
         Rot=    1.000000    0.000000    0.000000    0.000000 Ang=   0.00 deg.
 Initial guess orbital symmetries:
       Occupied  (A1) (A1) (T2) (T2) (T2)
       Virtual   (A1) (T2) (T2) (T2) (T2) (T2) (T2) (A1) (T2) (T2)
                 (T2) (A1) (E) (E) (T1) (T1) (T1) (T2) (T2) (T2)
                 (T2) (T2) (T2) (A1) (E) (E) (T2) (T2) (T2) (T2)
                 (T2) (T2) (A1) (T2) (T2) (T2) (A1)
 Keep R1 ints in memory in symmetry-blocked form, NReq=1297003.
 Requested convergence on RMS density matrix=1.00D-08 within 128 cycles.
 Requested convergence on MAX density matrix=1.00D-06.
 Requested convergence on             energy=1.00D-06.
 No special actions if energy rises.
 Skip diagonalization as Alpha Fock matrix is already diagonal.
 SCF Done:  E(RB3LYP) =  -40.5337484279     A.U. after    1 cycles
            NFock=  1  Conv=0.72D-18     -V/T= 2.0062

 **********************************************************************

            Population analysis using the SCF density.

 **********************************************************************

 Orbital symmetries:
       Occupied  (A1) (A1) (T2) (T2) (T2)
       Virtual   (A1) (T2) (T2) (T2) (T2) (T2) (T2) (A1) (T2) (T2)
                 (T2) (A1) (E) (E) (T1) (T1) (T1) (T2) (T2) (T2)
                 (T2) (T2) (T2) (A1) (E) (E) (T2) (T2) (T2) (T2)
                 (T2) (T2) (A1) (T2) (T2) (T2) (A1)
 The electronic state is 1-A1.
 Alpha  occ. eigenvalues --  -10.15225  -0.69614  -0.39492  -0.39492  -0.39492
 Alpha virt. eigenvalues --    0.05349   0.12415   0.12415   0.12415   0.27888
 Alpha virt. eigenvalues --    0.27888   0.27888   0.54232   0.59121   0.59121
 Alpha virt. eigenvalues --    0.59121   0.74272   0.96482   0.96482   1.45478
 Alpha virt. eigenvalues --    1.45478   1.45478   1.46082   1.46082   1.46082
 Alpha virt. eigenvalues --    1.88929   1.88929   1.88929   2.17293   2.31430
 Alpha virt. eigenvalues --    2.31430   2.39765   2.39765   2.39765   2.52265
 Alpha virt. eigenvalues --    2.52265   2.52265   2.86597   3.78695   3.78695
 Alpha virt. eigenvalues --    3.78695  23.98878
          Condensed to atoms (all electrons):
               1          2          3          4          5
     1  C    4.827330   0.402474   0.402474   0.402474   0.402474
     2  H    0.402474   0.566848  -0.026210  -0.026210  -0.026210
     3  H    0.402474  -0.026210   0.566848  -0.026210  -0.026210
     4  H    0.402474  -0.026210  -0.026210   0.566848  -0.026210
     5  H    0.402474  -0.026210  -0.026210  -0.026210   0.566848
 Mulliken charges:
               1
     1  C   -0.437226
     2  H    0.109307
     3  H    0.109307
     4  H    0.109307
     5  H    0.109307
 Sum of Mulliken charges =   0.00000
 Mulliken charges with hydrogens summed into heavy atoms:
               1
     1  C    0.000000
 Electronic spatial extent (au):  <R**2>=             35.8686
 Charge=              0.0000 electrons
 Dipole moment (field-independent basis, Debye):
    X=              0.0000    Y=              0.0000    Z=              0.0000  Tot=              0.0000
 Quadrupole moment (field-independent basis, Debye-Ang):
   XX=             -8.4621   YY=             -8.4621   ZZ=             -8.4621
   XY=              0.0000   XZ=              0.0000   YZ=              0.0000
 Traceless Quadrupole moment (field-independent basis, Debye-Ang):
   XX=              0.0000   YY=              0.0000   ZZ=              0.0000
   XY=              0.0000   XZ=              0.0000   YZ=              0.0000
 Octapole moment (field-independent basis, Debye-Ang**2):
  XXX=              0.0000  YYY=              0.0000  ZZZ=              0.0000  XYY=              0.0000
  XXY=              0.0000  XXZ=              0.0000  XZZ=              0.0000  YZZ=              0.0000
  YYZ=              0.0000  XYZ=              0.7062
 Hexadecapole moment (field-independent basis, Debye-Ang**3):
 XXXX=            -16.9938 YYYY=            -16.9938 ZZZZ=            -16.9938 XXXY=              0.0000
 XXXZ=              0.0000 YYYX=              0.0000 YYYZ=              0.0000 ZZZX=              0.0000
 ZZZY=              0.0000 XXYY=             -5.1633 XXZZ=             -5.1633 YYZZ=             -5.1633
 XXYZ=              0.0000 YYXZ=              0.0000 ZZXY=              0.0000
 N-N= 1.342608950571D+01 E-N=-1.201115454854D+02  KE= 4.028443906125D+01
 Symmetry A    KE= 3.444400804457D+01
 Symmetry B1   KE= 1.946810338895D+00
 Symmetry B2   KE= 1.946810338895D+00
 Symmetry B3   KE= 1.946810338895D+00
 ******************************Gaussian NBO Version 3.1******************************
             N A T U R A L   A T O M I C   O R B I T A L   A N D
          N A T U R A L   B O N D   O R B I T A L   A N A L Y S I S
 ******************************Gaussian NBO Version 3.1******************************
       /RESON  / : Allow strongly delocalized NBO set

 Analyzing the SCF density

 Job title: Methane                                                         

 Storage needed:      5544 in NPA (  33554257 available)


 NATURAL POPULATIONS:  Natural atomic orbital occupancies 
                                                          
   NAO  Atom  No  lang   Type(AO)    Occupancy      Energy
 ----------------------------------------------------------
     1    C    1  S      Cor( 1S)     1.99940     -10.01295
     2    C    1  S      Val( 2S)     1.15503      -0.26286
     3    C    1  S      Ryd( 3S)     0.00000       0.79846
     4    C    1  S      Ryd( 4S)     0.00000      23.50216
     5    C    1  px     Val( 2p)     1.21139      -0.09324
     6    C    1  px     Ryd( 3p)     0.00000       0.69382
     7    C    1  px     Ryd( 4p)     0.00000       2.94250
     8    C    1  py     Val( 2p)     1.21139      -0.09324
     9    C    1  py     Ryd( 3p)     0.00000       0.69382
    10    C    1  py     Ryd( 4p)     0.00000       2.94250
    11    C    1  pz     Val( 2p)     1.21139      -0.09324
    12    C    1  pz     Ryd( 3p)     0.00000       0.69382
    13    C    1  pz     Ryd( 4p)     0.00000       2.94250
    14    C    1  dxy    Ryd( 3d)     0.00097       2.21300
    15    C    1  dxz    Ryd( 3d)     0.00097       2.21300
    16    C    1  dyz    Ryd( 3d)     0.00097       2.21300
    17    C    1  dx2y2  Ryd( 3d)     0.00000       1.73830
    18    C    1  dz2    Ryd( 3d)     0.00000       1.73830

    19    H    2  S      Val( 1S)     0.80099       0.03896
    20    H    2  S      Ryd( 2S)     0.00051       0.28770
    21    H    2  S      Ryd( 3S)     0.00011       2.12866
    22    H    2  px     Ryd( 2p)     0.00017       1.98496
    23    H    2  py     Ryd( 2p)     0.00017       1.98496
    24    H    2  pz     Ryd( 2p)     0.00017       1.98496

    25    H    3  S      Val( 1S)     0.80099       0.03896
    26    H    3  S      Ryd( 2S)     0.00051       0.28770
    27    H    3  S      Ryd( 3S)     0.00011       2.12866
    28    H    3  px     Ryd( 2p)     0.00017       1.98496
    29    H    3  py     Ryd( 2p)     0.00017       1.98496
    30    H    3  pz     Ryd( 2p)     0.00017       1.98496

    31    H    4  S      Val( 1S)     0.80099       0.03896
    32    H    4  S      Ryd( 2S)     0.00051       0.28770
    33    H    4  S      Ryd( 3S)     0.00011       2.12866
    34    H    4  px     Ryd( 2p)     0.00017       1.98496
    35    H    4  py     Ryd( 2p)     0.00017       1.98496
    36    H    4  pz     Ryd( 2p)     0.00017       1.98496

    37    H    5  S      Val( 1S)     0.80099       0.03896
    38    H    5  S      Ryd( 2S)     0.00051       0.28770
    39    H    5  S      Ryd( 3S)     0.00011       2.12866
    40    H    5  px     Ryd( 2p)     0.00017       1.98496
    41    H    5  py     Ryd( 2p)     0.00017       1.98496
    42    H    5  pz     Ryd( 2p)     0.00017       1.98496


 Summary of Natural Population Analysis:                  
                                                          
                                       Natural Population 
                Natural  -----------------------------------------------
    Atom  No    Charge         Core      Valence    Rydberg      Total
 -----------------------------------------------------------------------
      C    1   -0.79151      1.99940     4.78920    0.00291     6.79151
      H    2    0.19788      0.00000     0.80099    0.00114     0.80212
      H    3    0.19788      0.00000     0.80099    0.00114     0.80212
      H    4    0.19788      0.00000     0.80099    0.00114     0.80212
      H    5    0.19788      0.00000     0.80099    0.00114     0.80212
 =======================================================================
   * Total *    0.00000      1.99940     7.99315    0.00745    10.00000

                                 Natural Population      
 --------------------------------------------------------
   Core                       1.99940 ( 99.9702% of   2)
   Valence                    7.99315 ( 99.9144% of   8)
   Natural Minimal Basis      9.99255 ( 99.9255% of  10)
   Natural Rydberg Basis      0.00745 (  0.0745% of  10)
 --------------------------------------------------------

    Atom  No          Natural Electron Configuration
 ----------------------------------------------------------------------------
      C    1      [core]2S( 1.16)2p( 3.63)
      H    2            1S( 0.80)
      H    3            1S( 0.80)
      H    4            1S( 0.80)
      H    5            1S( 0.80)


 NBO analysis skipped by request.
 1\1\GINC-CH-NETTLE\SP\RB3LYP\6-311G(d,p)\C1H4\JS4811\14-Mar-2016\0\\# 
 B3LYP/6-311G(d,p) Geom=Check Guess=Read Pop=NPA\\Methane\\0,1\C,0,0.,0
 .,0.\H,0,0.,0.,1.0907549973\H,0,1.0283736736,0.,-0.3635849991\H,0,-0.5
 141868368,-0.890597726,-0.3635849991\H,0,-0.5141868368,0.890597726,-0.
 3635849991\\Version=EM64M-G09RevD.01\State=1-A1\HF=-40.5337484\RMSD=7.
 196e-19\Dipole=0.,0.,0.\Quadrupole=0.,0.,0.,0.,0.,0.\PG=TD [O(C1),4C3(
 H1)]\\@


 HE THAT FOLLOWS NATURE IS NEVER LOST.

                             -- BACON
 Job cpu time:       0 days  0 hours  0 minutes  0.7 seconds.
 File lengths (MBytes):  RWF=      5 Int=      0 D2E=      0 Chk=      1 Scr=      1
 Normal termination of Gaussian 09 at Mon Mar 14 11:13:58 2016.
