Methane                                                                 
Freq      RB3LYP                                                      6-311G(d,p)         
Number of atoms                            I                5
Info1-9                                    I   N=           9
          12          12        1002           0           0         100
           6          18        -502
Charge                                     I                0
Multiplicity                               I                1
Number of electrons                        I               10
Number of alpha electrons                  I                5
Number of beta electrons                   I                5
Number of basis functions                  I               42
Number of independent functions            I               42
Number of point charges in /Mol/           I                0
Number of translation vectors              I                0
Atomic numbers                             I   N=           5
           6           1           1           1           1
Nuclear charges                            R   N=           5
  6.00000000E+00  1.00000000E+00  1.00000000E+00  1.00000000E+00  1.00000000E+00
Current cartesian coordinates              R   N=          15
  0.00000000E+00  0.00000000E+00  0.00000000E+00  1.19005067E+00  1.19005067E+00
  1.19005067E+00 -1.19005067E+00 -1.19005067E+00  1.19005067E+00 -1.19005067E+00
  1.19005067E+00 -1.19005067E+00  1.19005067E+00 -1.19005067E+00 -1.19005067E+00
Force Field                                I                0
Int Atom Types                             I   N=           5
           0           0           0           0           0
MM charges                                 R   N=           5
  0.00000000E+00  0.00000000E+00  0.00000000E+00  0.00000000E+00  0.00000000E+00
Integer atomic weights                     I   N=           5
          12           1           1           1           1
Real atomic weights                        R   N=           5
  1.20000000E+01  1.00782504E+00  1.00782504E+00  1.00782504E+00  1.00782504E+00
Atom fragment info                         I   N=           5
           0           0           0           0           0
Atom residue num                           I   N=           5
           0           0           0           0           0
Nuclear spins                              I   N=           5
           0           1           1           1           1
Nuclear ZEff                               R   N=           5
 -3.60000000E+00 -1.00000000E+00 -1.00000000E+00 -1.00000000E+00 -1.00000000E+00
Nuclear ZNuc                               R   N=           5
  6.00000000E+00  1.00000000E+00  1.00000000E+00  1.00000000E+00  1.00000000E+00
Nuclear QMom                               R   N=           5
  0.00000000E+00  0.00000000E+00  0.00000000E+00  0.00000000E+00  0.00000000E+00
Nuclear GFac                               R   N=           5
  0.00000000E+00  2.79284600E+00  2.79284600E+00  2.79284600E+00  2.79284600E+00
MicOpt                                     I   N=           5
          -1          -1          -1          -1          -1
Number of contracted shells                I               21
Number of primitive shells                 I               36
Pure/Cartesian d shells                    I                0
Pure/Cartesian f shells                    I                0
Highest angular momentum                   I                2
Largest degree of contraction              I                6
Shell types                                I   N=          21
           0          -1          -1          -1          -2           0
           0           0           1           0           0           0
           1           0           0           0           1           0
           0           0           1
Number of primitives per shell             I   N=          21
           6           3           1           1           1           3
           1           1           1           3           1           1
           1           3           1           1           1           3
           1           1           1
Shell to atom map                          I   N=          21
           1           1           1           1           1           2
           2           2           2           3           3           3
           3           4           4           4           4           5
           5           5           5
Primitive exponents                        R   N=          36
  4.56324000E+03  6.82024000E+02  1.54973000E+02  4.44553000E+01  1.30290000E+01
  1.82773000E+00  2.09642000E+01  4.80331000E+00  1.45933000E+00  4.83456000E-01
  1.45585000E-01  6.26000000E-01  3.38650000E+01  5.09479000E+00  1.15879000E+00
  3.25840000E-01  1.02741000E-01  7.50000000E-01  3.38650000E+01  5.09479000E+00
  1.15879000E+00  3.25840000E-01  1.02741000E-01  7.50000000E-01  3.38650000E+01
  5.09479000E+00  1.15879000E+00  3.25840000E-01  1.02741000E-01  7.50000000E-01
  3.38650000E+01  5.09479000E+00  1.15879000E+00  3.25840000E-01  1.02741000E-01
  7.50000000E-01
Contraction coefficients                   R   N=          36
  1.96665025E-03  1.52306019E-02  7.61269097E-02  2.60801033E-01  6.16462078E-01
  2.21006028E-01  1.14660081E-01  9.19999648E-01 -3.03068213E-03  1.00000000E+00
  1.00000000E+00  1.00000000E+00  2.54938145E-02  1.90373109E-01  8.52161486E-01
  1.00000000E+00  1.00000000E+00  1.00000000E+00  2.54938145E-02  1.90373109E-01
  8.52161486E-01  1.00000000E+00  1.00000000E+00  1.00000000E+00  2.54938145E-02
  1.90373109E-01  8.52161486E-01  1.00000000E+00  1.00000000E+00  1.00000000E+00
  2.54938145E-02  1.90373109E-01  8.52161486E-01  1.00000000E+00  1.00000000E+00
  1.00000000E+00
P(S=P) Contraction coefficients            R   N=          36
  0.00000000E+00  0.00000000E+00  0.00000000E+00  0.00000000E+00  0.00000000E+00
  0.00000000E+00  4.02486927E-02  2.37593957E-01  8.15853851E-01  1.00000000E+00
  1.00000000E+00  0.00000000E+00  0.00000000E+00  0.00000000E+00  0.00000000E+00
  0.00000000E+00  0.00000000E+00  0.00000000E+00  0.00000000E+00  0.00000000E+00
  0.00000000E+00  0.00000000E+00  0.00000000E+00  0.00000000E+00  0.00000000E+00
  0.00000000E+00  0.00000000E+00  0.00000000E+00  0.00000000E+00  0.00000000E+00
  0.00000000E+00  0.00000000E+00  0.00000000E+00  0.00000000E+00  0.00000000E+00
  0.00000000E+00
Coordinates of each shell                  R   N=          63
  0.00000000E+00  0.00000000E+00  0.00000000E+00  0.00000000E+00  0.00000000E+00
  0.00000000E+00  0.00000000E+00  0.00000000E+00  0.00000000E+00  0.00000000E+00
  0.00000000E+00  0.00000000E+00  0.00000000E+00  0.00000000E+00  0.00000000E+00
  1.19005067E+00  1.19005067E+00  1.19005067E+00  1.19005067E+00  1.19005067E+00
  1.19005067E+00  1.19005067E+00  1.19005067E+00  1.19005067E+00  1.19005067E+00
  1.19005067E+00  1.19005067E+00 -1.19005067E+00 -1.19005067E+00  1.19005067E+00
 -1.19005067E+00 -1.19005067E+00  1.19005067E+00 -1.19005067E+00 -1.19005067E+00
  1.19005067E+00 -1.19005067E+00 -1.19005067E+00  1.19005067E+00 -1.19005067E+00
  1.19005067E+00 -1.19005067E+00 -1.19005067E+00  1.19005067E+00 -1.19005067E+00
 -1.19005067E+00  1.19005067E+00 -1.19005067E+00 -1.19005067E+00  1.19005067E+00
 -1.19005067E+00  1.19005067E+00 -1.19005067E+00 -1.19005067E+00  1.19005067E+00
 -1.19005067E+00 -1.19005067E+00  1.19005067E+00 -1.19005067E+00 -1.19005067E+00
  1.19005067E+00 -1.19005067E+00 -1.19005067E+00
Constraint Structure                       R   N=          15
  0.00000000E+00  0.00000000E+00  0.00000000E+00  1.19005067E+00  1.19005067E+00
  1.19005067E+00 -1.19005067E+00 -1.19005067E+00  1.19005067E+00 -1.19005067E+00
  1.19005067E+00 -1.19005067E+00  1.19005067E+00 -1.19005067E+00 -1.19005067E+00
Num ILSW                                   I              100
ILSW                                       I   N=         100
           0           0           0           0           2           0
           0           0           0           0         402          -1
           0           0           0           0           2           0
           0           0           1           0           1           0
           1           0           0           0           0           0
           0           0      100000           0          -1           0
           0           0           0           0           0           0
           0           0           0           1           0           0
           0           0           1           0           0           0
           0           0           4          41           0           0
           0           0           5           0           0           0
           0           0           0           0           0           0
           0           0           0           0           0           0
           0           0           0           0           0           0
           0           0           0           0           0           0
           0           0           0           0           0           0
           0           0           0           0
Num RLSW                                   I               41
RLSW                                       R   N=          41
  8.00000000E-01  7.20000000E-01  1.00000000E+00  8.10000000E-01  2.00000000E-01
  0.00000000E+00  0.00000000E+00  1.00000000E+00  0.00000000E+00  0.00000000E+00
  0.00000000E+00  0.00000000E+00  1.00000000E+00  0.00000000E+00  0.00000000E+00
  0.00000000E+00  0.00000000E+00  1.00000000E+00  0.00000000E+00  0.00000000E+00
  0.00000000E+00  0.00000000E+00  1.00000000E+00  0.00000000E+00  0.00000000E+00
  0.00000000E+00  0.00000000E+00  1.00000000E+00  0.00000000E+00  0.00000000E+00
  0.00000000E+00  0.00000000E+00  1.00000000E+00  0.00000000E+00  0.00000000E+00
  0.00000000E+00  0.00000000E+00  0.00000000E+00  1.00000000E+00  1.00000000E+00
  0.00000000E+00
MxBond                                     I                4
NBond                                      I   N=           5
           4           1           1           1           1
IBond                                      I   N=          20
           2           3           4           5           1           0
           0           0           1           0           0           0
           1           0           0           0           1           0
           0           0
RBond                                      R   N=          20
  1.00000000E+00  1.00000000E+00  1.00000000E+00  1.00000000E+00  1.00000000E+00
  0.00000000E+00  0.00000000E+00  0.00000000E+00  1.00000000E+00  0.00000000E+00
  0.00000000E+00  0.00000000E+00  1.00000000E+00  0.00000000E+00  0.00000000E+00
  0.00000000E+00  1.00000000E+00  0.00000000E+00  0.00000000E+00  0.00000000E+00
Virial Ratio                               R      2.006188726277725E+00
SCF Energy                                 R     -4.053374842785375E+01
Total Energy                               R     -4.053374842785375E+01
RMS Force                                  R      4.368328994302661E-06
RMS Density                                R      5.169329129289279E-19
External E-field                           R   N=          35
  0.00000000E+00  0.00000000E+00  0.00000000E+00  0.00000000E+00  0.00000000E+00
  0.00000000E+00  0.00000000E+00  0.00000000E+00  0.00000000E+00  0.00000000E+00
  0.00000000E+00  0.00000000E+00  0.00000000E+00  0.00000000E+00  0.00000000E+00
  0.00000000E+00  0.00000000E+00  0.00000000E+00  0.00000000E+00  0.00000000E+00
  0.00000000E+00  0.00000000E+00  0.00000000E+00  0.00000000E+00  0.00000000E+00
  0.00000000E+00  0.00000000E+00  0.00000000E+00  0.00000000E+00  0.00000000E+00
  0.00000000E+00  0.00000000E+00  0.00000000E+00  0.00000000E+00  0.00000000E+00
IOpCl                                      I                0
IROHF                                      I                0
Alpha Orbital Energies                     R   N=          42
 -1.01522532E+01 -6.96140696E-01 -3.94916060E-01 -3.94916060E-01 -3.94916060E-01
  5.34863810E-02  1.24151892E-01  1.24151892E-01  1.24151892E-01  2.78879243E-01
  2.78879243E-01  2.78879243E-01  5.42315092E-01  5.91206807E-01  5.91206807E-01
  5.91206807E-01  7.42719403E-01  9.64821724E-01  9.64821724E-01  1.45478020E+00
  1.45478020E+00  1.45478020E+00  1.46082436E+00  1.46082436E+00  1.46082436E+00
  1.88929433E+00  1.88929433E+00  1.88929433E+00  2.17292998E+00  2.31429507E+00
  2.31429507E+00  2.39764970E+00  2.39764970E+00  2.39764970E+00  2.52265031E+00
  2.52265031E+00  2.52265031E+00  2.86597209E+00  3.78694867E+00  3.78694867E+00
  3.78694867E+00  2.39887760E+01
Alpha MO coefficients                      R   N=        1764
  5.62948169E-01  4.63164721E-01  0.00000000E+00  0.00000000E+00  0.00000000E+00
  1.90438939E-02  0.00000000E+00  0.00000000E+00  0.00000000E+00 -3.61018001E-03
  0.00000000E+00  0.00000000E+00  0.00000000E+00  2.25676612E-16  0.00000000E+00
  0.00000000E+00 -2.08391430E-16  0.00000000E+00  2.05514773E-04 -3.13233376E-03
  1.23912784E-03  1.22082374E-03  1.22082374E-03  1.22082374E-03  2.05514773E-04
 -3.13233376E-03  1.23912784E-03 -1.22082374E-03 -1.22082374E-03  1.22082374E-03
  2.05514773E-04 -3.13233376E-03  1.23912784E-03 -1.22082374E-03  1.22082374E-03
 -1.22082374E-03  2.05514773E-04 -3.13233376E-03  1.23912784E-03  1.22082374E-03
 -1.22082374E-03 -1.22082374E-03 -1.09199398E-01 -1.69030846E-01  0.00000000E+00
  0.00000000E+00  0.00000000E+00  4.41375936E-01  0.00000000E+00  0.00000000E+00
  0.00000000E+00  2.62693288E-01  0.00000000E+00  0.00000000E+00  0.00000000E+00
 -3.51087249E-16  0.00000000E+00  0.00000000E+00  2.03393940E-15  0.00000000E+00
  8.63470267E-02  1.01044916E-01  1.26049129E-02 -9.42696987E-03 -9.42696987E-03
 -9.42696987E-03  8.63470267E-02  1.01044916E-01  1.26049129E-02  9.42696987E-03
  9.42696987E-03 -9.42696987E-03  8.63470267E-02  1.01044916E-01  1.26049129E-02
  9.42696987E-03 -9.42696987E-03  9.42696987E-03  8.63470267E-02  1.01044916E-01
  1.26049129E-02 -9.42696987E-03  9.42696987E-03  9.42696987E-03  0.00000000E+00
  0.00000000E+00  2.05241662E-01  0.00000000E+00  0.00000000E+00  0.00000000E+00
  2.92111527E-01  0.00000000E+00  0.00000000E+00  0.00000000E+00  2.00061831E-01
  0.00000000E+00  0.00000000E+00  0.00000000E+00  0.00000000E+00  2.46495835E-02
  0.00000000E+00  0.00000000E+00  1.05371533E-01  1.43281405E-01  7.88443497E-02
  3.95322607E-03 -9.02179713E-03 -9.02179713E-03 -1.05371533E-01 -1.43281405E-01
 -7.88443497E-02  3.95322607E-03 -9.02179713E-03  9.02179713E-03 -1.05371533E-01
 -1.43281405E-01 -7.88443497E-02  3.95322607E-03  9.02179713E-03 -9.02179713E-03
  1.05371533E-01  1.43281405E-01  7.88443497E-02  3.95322607E-03  9.02179713E-03
  9.02179713E-03  0.00000000E+00  0.00000000E+00  0.00000000E+00  0.00000000E+00
  2.05241662E-01  0.00000000E+00  0.00000000E+00  0.00000000E+00  2.92111527E-01
  0.00000000E+00  0.00000000E+00  0.00000000E+00  2.00061831E-01  0.00000000E+00
  0.00000000E+00  0.00000000E+00  0.00000000E+00  2.46495835E-02  1.05371533E-01
  1.43281405E-01  7.88443497E-02 -9.02179713E-03 -9.02179713E-03  3.95322607E-03
  1.05371533E-01  1.43281405E-01  7.88443497E-02  9.02179713E-03  9.02179713E-03
  3.95322607E-03 -1.05371533E-01 -1.43281405E-01 -7.88443497E-02 -9.02179713E-03
  9.02179713E-03  3.95322607E-03 -1.05371533E-01 -1.43281405E-01 -7.88443497E-02
  9.02179713E-03 -9.02179713E-03  3.95322607E-03  0.00000000E+00  0.00000000E+00
  0.00000000E+00  2.05241662E-01  0.00000000E+00  0.00000000E+00  0.00000000E+00
  2.92111527E-01  0.00000000E+00  0.00000000E+00  0.00000000E+00  2.00061831E-01
  0.00000000E+00  0.00000000E+00  2.46495835E-02  0.00000000E+00  0.00000000E+00
  0.00000000E+00  1.05371533E-01  1.43281405E-01  7.88443497E-02 -9.02179713E-03
  3.95322607E-03 -9.02179713E-03 -1.05371533E-01 -1.43281405E-01 -7.88443497E-02
 -9.02179713E-03  3.95322607E-03  9.02179713E-03  1.05371533E-01  1.43281405E-01
  7.88443497E-02  9.02179713E-03  3.95322607E-03  9.02179713E-03 -1.05371533E-01
 -1.43281405E-01 -7.88443497E-02  9.02179713E-03  3.95322607E-03 -9.02179713E-03
 -6.09307586E-02 -9.51556106E-02  0.00000000E+00  0.00000000E+00  0.00000000E+00
  1.80227237E-01  0.00000000E+00  0.00000000E+00  0.00000000E+00  2.01576887E+00
  0.00000000E+00  0.00000000E+00  0.00000000E+00  6.40056506E-15  0.00000000E+00
  0.00000000E+00 -2.67247398E-14  0.00000000E+00 -1.13783977E-02 -3.40637453E-02
 -7.36511615E-01 -3.88023299E-03 -3.88023299E-03 -3.88023299E-03 -1.13783977E-02
 -3.40637453E-02 -7.36511615E-01  3.88023299E-03  3.88023299E-03 -3.88023299E-03
 -1.13783977E-02 -3.40637453E-02 -7.36511615E-01  3.88023299E-03 -3.88023299E-03
  3.88023299E-03 -1.13783977E-02 -3.40637453E-02 -7.36511615E-01 -3.88023299E-03
  3.88023299E-03  3.88023299E-03  0.00000000E+00  0.00000000E+00  0.00000000E+00
  0.00000000E+00 -1.73486089E-01  0.00000000E+00  0.00000000E+00  0.00000000E+00
 -1.59418088E-01  0.00000000E+00  0.00000000E+00  0.00000000E+00 -1.11280404E+00
  0.00000000E+00  0.00000000E+00  0.00000000E+00  0.00000000E+00  3.36174788E-02
  1.82146209E-02 -5.91844533E-03  1.23883826E+00  1.74234245E-02  1.74234245E-02
  8.43499317E-03  1.82146209E-02 -5.91844533E-03  1.23883826E+00 -1.74234245E-02
 -1.74234245E-02  8.43499317E-03 -1.82146209E-02  5.91844533E-03 -1.23883826E+00
  1.74234245E-02 -1.74234245E-02  8.43499317E-03 -1.82146209E-02  5.91844533E-03
 -1.23883826E+00 -1.74234245E-02  1.74234245E-02  8.43499317E-03  0.00000000E+00
  0.00000000E+00  0.00000000E+00 -1.73486089E-01  0.00000000E+00  0.00000000E+00
  0.00000000E+00 -1.59418088E-01  0.00000000E+00  0.00000000E+00  0.00000000E+00
 -1.11280404E+00  0.00000000E+00  0.00000000E+00  3.36174788E-02  0.00000000E+00
  0.00000000E+00  0.00000000E+00  1.82146209E-02 -5.91844533E-03  1.23883826E+00
  1.74234245E-02  8.43499317E-03  1.74234245E-02 -1.82146209E-02  5.91844533E-03
 -1.23883826E+00  1.74234245E-02  8.43499317E-03 -1.74234245E-02  1.82146209E-02
 -5.91844533E-03  1.23883826E+00 -1.74234245E-02  8.43499317E-03 -1.74234245E-02
 -1.82146209E-02  5.91844533E-03 -1.23883826E+00 -1.74234245E-02  8.43499317E-03
  1.74234245E-02  0.00000000E+00  0.00000000E+00 -1.73486089E-01  0.00000000E+00
  0.00000000E+00  0.00000000E+00 -1.59418088E-01  0.00000000E+00  0.00000000E+00
  0.00000000E+00 -1.11280404E+00  0.00000000E+00  0.00000000E+00  0.00000000E+00
  0.00000000E+00  3.36174788E-02  0.00000000E+00  0.00000000E+00  1.82146209E-02
 -5.91844533E-03  1.23883826E+00  8.43499317E-03  1.74234245E-02  1.74234245E-02
 -1.82146209E-02  5.91844533E-03 -1.23883826E+00  8.43499317E-03  1.74234245E-02
 -1.74234245E-02 -1.82146209E-02  5.91844533E-03 -1.23883826E+00  8.43499317E-03
 -1.74234245E-02  1.74234245E-02  1.82146209E-02 -5.91844533E-03  1.23883826E+00
  8.43499317E-03 -1.74234245E-02 -1.74234245E-02  0.00000000E+00  0.00000000E+00
  0.00000000E+00 -4.15741373E-03  0.00000000E+00  0.00000000E+00  0.00000000E+00
  5.27191131E-02  0.00000000E+00  0.00000000E+00  0.00000000E+00  1.35126541E+00
  0.00000000E+00  0.00000000E+00  2.30109203E-02  0.00000000E+00  0.00000000E+00
  0.00000000E+00 -5.62761865E-02 -7.80569108E-01  1.95332447E-01  1.73714547E-02
  3.41774668E-02  1.73714547E-02  5.62761865E-02  7.80569108E-01 -1.95332447E-01
  1.73714547E-02  3.41774668E-02 -1.73714547E-02 -5.62761865E-02 -7.80569108E-01
  1.95332447E-01 -1.73714547E-02  3.41774668E-02 -1.73714547E-02  5.62761865E-02
  7.80569108E-01 -1.95332447E-01 -1.73714547E-02  3.41774668E-02  1.73714547E-02
  0.00000000E+00  0.00000000E+00  0.00000000E+00  0.00000000E+00 -4.15741373E-03
  0.00000000E+00  0.00000000E+00  0.00000000E+00  5.27191131E-02  0.00000000E+00
  0.00000000E+00  0.00000000E+00  1.35126541E+00  0.00000000E+00  0.00000000E+00
  0.00000000E+00  0.00000000E+00  2.30109203E-02 -5.62761865E-02 -7.80569108E-01
  1.95332447E-01  1.73714547E-02  1.73714547E-02  3.41774668E-02 -5.62761865E-02
 -7.80569108E-01  1.95332447E-01 -1.73714547E-02 -1.73714547E-02  3.41774668E-02
  5.62761865E-02  7.80569108E-01 -1.95332447E-01  1.73714547E-02 -1.73714547E-02
  3.41774668E-02  5.62761865E-02  7.80569108E-01 -1.95332447E-01 -1.73714547E-02
  1.73714547E-02  3.41774668E-02  0.00000000E+00  0.00000000E+00 -4.15741373E-03
  0.00000000E+00  0.00000000E+00  0.00000000E+00  5.27191131E-02  0.00000000E+00
  0.00000000E+00  0.00000000E+00  1.35126541E+00  0.00000000E+00  0.00000000E+00
  0.00000000E+00  0.00000000E+00  2.30109203E-02  0.00000000E+00  0.00000000E+00
 -5.62761865E-02 -7.80569108E-01  1.95332447E-01  3.41774668E-02  1.73714547E-02
  1.73714547E-02  5.62761865E-02  7.80569108E-01 -1.95332447E-01  3.41774668E-02
  1.73714547E-02 -1.73714547E-02  5.62761865E-02  7.80569108E-01 -1.95332447E-01
  3.41774668E-02 -1.73714547E-02  1.73714547E-02 -5.62761865E-02 -7.80569108E-01
  1.95332447E-01  3.41774668E-02 -1.73714547E-02 -1.73714547E-02 -7.79987474E-02
 -1.40698618E-01  0.00000000E+00  0.00000000E+00  0.00000000E+00  5.59426824E-01
  0.00000000E+00  0.00000000E+00  0.00000000E+00  1.42162394E+00  0.00000000E+00
  0.00000000E+00  0.00000000E+00  7.55422292E-15  0.00000000E+00  0.00000000E+00
 -4.56708657E-14  0.00000000E+00 -8.26949320E-02 -1.07028844E+00  2.63977474E-01
 -1.90380425E-02 -1.90380425E-02 -1.90380425E-02 -8.26949320E-02 -1.07028844E+00
  2.63977474E-01  1.90380425E-02  1.90380425E-02 -1.90380425E-02 -8.26949320E-02
 -1.07028844E+00  2.63977474E-01  1.90380425E-02 -1.90380425E-02  1.90380425E-02
 -8.26949320E-02 -1.07028844E+00  2.63977474E-01 -1.90380425E-02  1.90380425E-02
  1.90380425E-02  0.00000000E+00  0.00000000E+00  0.00000000E+00 -2.83869947E-01
  0.00000000E+00  0.00000000E+00  0.00000000E+00 -9.67101574E-01  0.00000000E+00
  0.00000000E+00  0.00000000E+00  1.81032082E+00  0.00000000E+00  0.00000000E+00
  6.72987950E-02  0.00000000E+00  0.00000000E+00  0.00000000E+00  5.28593679E-02
  2.87129577E-01 -1.12113985E+00  3.42431004E-02 -4.29017508E-03  3.42431004E-02
 -5.28593679E-02 -2.87129577E-01  1.12113985E+00  3.42431004E-02 -4.29017508E-03
 -3.42431004E-02  5.28593679E-02  2.87129577E-01 -1.12113985E+00 -3.42431004E-02
 -4.29017508E-03 -3.42431004E-02 -5.28593679E-02 -2.87129577E-01  1.12113985E+00
 -3.42431004E-02 -4.29017508E-03  3.42431004E-02  0.00000000E+00  0.00000000E+00
 -2.83869947E-01  0.00000000E+00  0.00000000E+00  0.00000000E+00 -9.67101574E-01
  0.00000000E+00  0.00000000E+00  0.00000000E+00  1.81032082E+00  0.00000000E+00
  0.00000000E+00  0.00000000E+00  0.00000000E+00  6.72987950E-02  0.00000000E+00
  0.00000000E+00  5.28593679E-02  2.87129577E-01 -1.12113985E+00 -4.29017508E-03
  3.42431004E-02  3.42431004E-02 -5.28593679E-02 -2.87129577E-01  1.12113985E+00
 -4.29017508E-03  3.42431004E-02 -3.42431004E-02 -5.28593679E-02 -2.87129577E-01
  1.12113985E+00 -4.29017508E-03 -3.42431004E-02  3.42431004E-02  5.28593679E-02
  2.87129577E-01 -1.12113985E+00 -4.29017508E-03 -3.42431004E-02 -3.42431004E-02
  0.00000000E+00  0.00000000E+00  0.00000000E+00  0.00000000E+00 -2.83869947E-01
  0.00000000E+00  0.00000000E+00  0.00000000E+00 -9.67101574E-01  0.00000000E+00
  0.00000000E+00  0.00000000E+00  1.81032082E+00  0.00000000E+00  0.00000000E+00
  0.00000000E+00  0.00000000E+00  6.72987950E-02  5.28593679E-02  2.87129577E-01
 -1.12113985E+00  3.42431004E-02  3.42431004E-02 -4.29017508E-03  5.28593679E-02
  2.87129577E-01 -1.12113985E+00 -3.42431004E-02 -3.42431004E-02 -4.29017508E-03
 -5.28593679E-02 -2.87129577E-01  1.12113985E+00  3.42431004E-02 -3.42431004E-02
 -4.29017508E-03 -5.28593679E-02 -2.87129577E-01  1.12113985E+00 -3.42431004E-02
  3.42431004E-02 -4.29017508E-03  1.02391304E-01  2.02175631E-01  0.00000000E+00
  0.00000000E+00  0.00000000E+00 -1.90578334E+00  0.00000000E+00  0.00000000E+00
  0.00000000E+00  5.89347313E+00  0.00000000E+00  0.00000000E+00  0.00000000E+00
  2.28287403E-14  0.00000000E+00  0.00000000E+00 -9.57583552E-14  0.00000000E+00
  7.08506036E-03 -8.12340133E-01 -7.49191423E-01  7.77959530E-02  7.77959530E-02
  7.77959530E-02  7.08506036E-03 -8.12340133E-01 -7.49191423E-01 -7.77959530E-02
 -7.77959530E-02  7.77959530E-02  7.08506036E-03 -8.12340133E-01 -7.49191423E-01
 -7.77959530E-02  7.77959530E-02 -7.77959530E-02  7.08506036E-03 -8.12340133E-01
 -7.49191423E-01  7.77959530E-02 -7.77959530E-02 -7.77959530E-02  4.58161593E-15
 -2.83088837E-15  0.00000000E+00  0.00000000E+00  0.00000000E+00 -2.02669106E-14
  0.00000000E+00  0.00000000E+00  0.00000000E+00  8.85146690E-14  0.00000000E+00
  0.00000000E+00  0.00000000E+00  4.69832955E-01  0.00000000E+00  0.00000000E+00
  5.91152415E-02  0.00000000E+00  2.12328215E-15 -2.29803052E-14 -6.18037463E-15
 -9.63564084E-02 -1.50057298E-01  2.46413706E-01  2.12328215E-15 -2.29803052E-14
 -6.18037463E-15  9.63564084E-02  1.50057298E-01  2.46413706E-01  2.12328215E-15
 -2.29803052E-14 -6.18037463E-15  9.63564084E-02 -1.50057298E-01 -2.46413706E-01
  2.12328215E-15 -2.29803052E-14 -6.18037463E-15 -9.63564084E-02  1.50057298E-01
 -2.46413706E-01 -1.36831337E-14  6.06050494E-14  0.00000000E+00  0.00000000E+00
  0.00000000E+00 -2.98718261E-13  0.00000000E+00  0.00000000E+00  0.00000000E+00
 -1.28852382E-13  0.00000000E+00  0.00000000E+00  0.00000000E+00 -5.91152415E-02
  0.00000000E+00  0.00000000E+00  4.69832955E-01  0.00000000E+00 -8.63782124E-14
  2.06386095E-13 -3.45650838E-14  2.28902641E-01 -1.97898418E-01 -3.10042231E-02
 -8.63782124E-14  2.06386095E-13 -3.45650838E-14 -2.28902641E-01  1.97898418E-01
 -3.10042231E-02 -8.63782124E-14  2.06386095E-13 -3.45650838E-14 -2.28902641E-01
 -1.97898418E-01  3.10042231E-02 -8.63782124E-14  2.06386095E-13 -3.45650838E-14
  2.28902641E-01  1.97898418E-01  3.10042231E-02  0.00000000E+00  0.00000000E+00
  3.74943273E-14  0.00000000E+00  0.00000000E+00  0.00000000E+00  1.36304988E-13
  0.00000000E+00  0.00000000E+00  0.00000000E+00  7.42659873E-13  0.00000000E+00
  0.00000000E+00  0.00000000E+00  0.00000000E+00  6.36067466E-13  0.00000000E+00
  0.00000000E+00  1.39025362E-13 -6.58835524E-13  8.51469078E-14 -1.44863739E-13
  3.67601031E-01 -3.67601031E-01 -1.39025362E-13  6.58835524E-13 -8.51469078E-14
 -1.44863739E-13  3.67601031E-01  3.67601031E-01 -1.39025362E-13  6.58835524E-13
 -8.51469078E-14 -1.44863739E-13 -3.67601031E-01 -3.67601031E-01  1.39025362E-13
 -6.58835524E-13  8.51469078E-14 -1.44863739E-13 -3.67601031E-01  3.67601031E-01
  0.00000000E+00  0.00000000E+00  0.00000000E+00  0.00000000E+00  7.22989621E-15
  0.00000000E+00  0.00000000E+00  0.00000000E+00  2.46797533E-14  0.00000000E+00
  0.00000000E+00  0.00000000E+00  1.09873730E-13  0.00000000E+00  0.00000000E+00
  0.00000000E+00  0.00000000E+00  9.67068883E-14  2.05879869E-14 -1.00434840E-13
  1.39252617E-14  3.67601031E-01 -3.67601031E-01 -2.08758922E-14  2.05879869E-14
 -1.00434840E-13  1.39252617E-14 -3.67601031E-01  3.67601031E-01 -2.08758922E-14
 -2.05879869E-14  1.00434840E-13 -1.39252617E-14  3.67601031E-01  3.67601031E-01
 -2.08758922E-14 -2.05879869E-14  1.00434840E-13 -1.39252617E-14 -3.67601031E-01
 -3.67601031E-01 -2.08758922E-14  0.00000000E+00  0.00000000E+00  0.00000000E+00
  3.08438335E-14  0.00000000E+00  0.00000000E+00  0.00000000E+00  1.07245458E-13
  0.00000000E+00  0.00000000E+00  0.00000000E+00  5.75048024E-13  0.00000000E+00
  0.00000000E+00  5.05290009E-13  0.00000000E+00  0.00000000E+00  0.00000000E+00
  1.07714597E-13 -5.17311272E-13  7.13892780E-14  3.67601031E-01 -1.10107196E-13
 -3.67601031E-01 -1.07714597E-13  5.17311272E-13 -7.13892780E-14  3.67601031E-01
 -1.10107196E-13  3.67601031E-01  1.07714597E-13 -5.17311272E-13  7.13892780E-14
 -3.67601031E-01 -1.10107196E-13  3.67601031E-01 -1.07714597E-13  5.17311272E-13
 -7.13892780E-14 -3.67601031E-01 -1.10107196E-13 -3.67601031E-01  0.00000000E+00
  0.00000000E+00  0.00000000E+00  0.00000000E+00  6.04923245E-02  0.00000000E+00
  0.00000000E+00  0.00000000E+00  1.44580294E-01  0.00000000E+00  0.00000000E+00
  0.00000000E+00  1.00840829E+00  0.00000000E+00  0.00000000E+00  0.00000000E+00
  0.00000000E+00  8.46559405E-01  1.90074359E-01 -8.77499186E-01  1.16565651E-01
  5.60063409E-02  5.60063409E-02 -2.11080222E-01  1.90074359E-01 -8.77499186E-01
  1.16565651E-01 -5.60063409E-02 -5.60063409E-02 -2.11080222E-01 -1.90074359E-01
  8.77499186E-01 -1.16565651E-01  5.60063409E-02 -5.60063409E-02 -2.11080222E-01
 -1.90074359E-01  8.77499186E-01 -1.16565651E-01 -5.60063409E-02  5.60063409E-02
 -2.11080222E-01  0.00000000E+00  0.00000000E+00  0.00000000E+00  6.04923245E-02
  0.00000000E+00  0.00000000E+00  0.00000000E+00  1.44580294E-01  0.00000000E+00
  0.00000000E+00  0.00000000E+00  1.00840829E+00  0.00000000E+00  0.00000000E+00
  8.46559405E-01  0.00000000E+00  0.00000000E+00  0.00000000E+00  1.90074359E-01
 -8.77499186E-01  1.16565651E-01  5.60063409E-02 -2.11080222E-01  5.60063409E-02
 -1.90074359E-01  8.77499186E-01 -1.16565651E-01  5.60063409E-02 -2.11080222E-01
 -5.60063409E-02  1.90074359E-01 -8.77499186E-01  1.16565651E-01 -5.60063409E-02
 -2.11080222E-01 -5.60063409E-02 -1.90074359E-01  8.77499186E-01 -1.16565651E-01
 -5.60063409E-02 -2.11080222E-01  5.60063409E-02  0.00000000E+00  0.00000000E+00
  6.04923245E-02  0.00000000E+00  0.00000000E+00  0.00000000E+00  1.44580294E-01
  0.00000000E+00  0.00000000E+00  0.00000000E+00  1.00840829E+00  0.00000000E+00
  0.00000000E+00  0.00000000E+00  0.00000000E+00  8.46559405E-01  0.00000000E+00
  0.00000000E+00  1.90074359E-01 -8.77499186E-01  1.16565651E-01 -2.11080222E-01
  5.60063409E-02  5.60063409E-02 -1.90074359E-01  8.77499186E-01 -1.16565651E-01
 -2.11080222E-01  5.60063409E-02 -5.60063409E-02 -1.90074359E-01  8.77499186E-01
 -1.16565651E-01 -2.11080222E-01 -5.60063409E-02  5.60063409E-02  1.90074359E-01
 -8.77499186E-01  1.16565651E-01 -2.11080222E-01 -5.60063409E-02 -5.60063409E-02
  0.00000000E+00  0.00000000E+00  0.00000000E+00  2.91532488E-01  0.00000000E+00
  0.00000000E+00  0.00000000E+00 -5.42623127E-01  0.00000000E+00  0.00000000E+00