Title                                                                   
Freq      RB3LYP                                                      6-311G(d,p)         
Number of atoms                            I               14
Info1-9                                    I   N=           9
          21          21        1002           0           0         100
           6          18        -502
Charge                                     I                1
Multiplicity                               I                1
Number of electrons                        I               34
Number of alpha electrons                  I               17
Number of beta electrons                   I               17
Number of basis functions                  I              132
Number of independent functions            I              132
Number of point charges in /Mol/           I                0
Number of translation vectors              I                0
Atomic numbers                             I   N=          14
           6           1           1           1           6           1
           1           1           6           1           1           1
           7           1
Nuclear charges                            R   N=          14
  6.00000000E+00  1.00000000E+00  1.00000000E+00  1.00000000E+00  6.00000000E+00
  1.00000000E+00  1.00000000E+00  1.00000000E+00  6.00000000E+00  1.00000000E+00
  1.00000000E+00  1.00000000E+00  7.00000000E+00  1.00000000E+00
Current cartesian coordinates              R   N=          42
 -1.37923297E+00  2.34554605E+00 -1.94848015E-01 -3.30081885E+00  2.28430662E+00
  5.36764586E-01 -3.91945883E-01  3.99532629E+00  5.36584768E-01 -1.40450601E+00
  2.38816016E+00 -2.25188553E+00  2.72110522E+00  2.15237942E-02 -1.94927068E-01
  3.62960869E+00  1.71527335E+00  5.38111201E-01  3.65551615E+00 -1.65921995E+00
  5.35479553E-01  2.77100298E+00  2.35843353E-02 -2.25197061E+00 -1.34195431E+00
 -2.36708827E+00 -1.94906272E-01 -1.36886094E+00 -2.40874749E+00 -2.25195910E+00
 -3.27262423E-01 -4.00102408E+00  5.34542909E-01 -3.26343013E+00 -2.33727879E+00
  5.38992197E-01  1.57640806E-04 -3.15965972E-05  6.38779260E-01  8.52361282E-05
 -4.86799690E-05  2.57197334E+00
Force Field                                I                0
Int Atom Types                             I   N=          14
           0           0           0           0           0           0
           0           0           0           0           0           0
           0           0
MM charges                                 R   N=          14
  0.00000000E+00  0.00000000E+00  0.00000000E+00  0.00000000E+00  0.00000000E+00
  0.00000000E+00  0.00000000E+00  0.00000000E+00  0.00000000E+00  0.00000000E+00
  0.00000000E+00  0.00000000E+00  0.00000000E+00  0.00000000E+00
Integer atomic weights                     I   N=          14
          12           1           1           1          12           1
           1           1          12           1           1           1
          14           1
Real atomic weights                        R   N=          14
  1.20000000E+01  1.00782504E+00  1.00782504E+00  1.00782504E+00  1.20000000E+01
  1.00782504E+00  1.00782504E+00  1.00782504E+00  1.20000000E+01  1.00782504E+00
  1.00782504E+00  1.00782504E+00  1.40030740E+01  1.00782504E+00
Atom fragment info                         I   N=          14
           0           0           0           0           0           0
           0           0           0           0           0           0
           0           0
Atom residue num                           I   N=          14
           0           0           0           0           0           0
           0           0           0           0           0           0
           0           0
Nuclear spins                              I   N=          14
           0           1           1           1           0           1
           1           1           0           1           1           1
           2           1
Nuclear ZEff                               R   N=          14
 -3.60000000E+00 -1.00000000E+00 -1.00000000E+00 -1.00000000E+00 -3.60000000E+00
 -1.00000000E+00 -1.00000000E+00 -1.00000000E+00 -3.60000000E+00 -1.00000000E+00
 -1.00000000E+00 -1.00000000E+00 -4.55000000E+00 -1.00000000E+00
Nuclear ZNuc                               R   N=          14
  6.00000000E+00  1.00000000E+00  1.00000000E+00  1.00000000E+00  6.00000000E+00
  1.00000000E+00  1.00000000E+00  1.00000000E+00  6.00000000E+00  1.00000000E+00
  1.00000000E+00  1.00000000E+00  7.00000000E+00  1.00000000E+00
Nuclear QMom                               R   N=          14
  0.00000000E+00  0.00000000E+00  0.00000000E+00  0.00000000E+00  0.00000000E+00
  0.00000000E+00  0.00000000E+00  0.00000000E+00  0.00000000E+00  0.00000000E+00
  0.00000000E+00  0.00000000E+00  2.04400000E+00  0.00000000E+00
Nuclear GFac                               R   N=          14
  0.00000000E+00  2.79284600E+00  2.79284600E+00  2.79284600E+00  0.00000000E+00
  2.79284600E+00  2.79284600E+00  2.79284600E+00  0.00000000E+00  2.79284600E+00
  2.79284600E+00  2.79284600E+00  4.03761000E-01  2.79284600E+00
MicOpt                                     I   N=          14
          -1          -1          -1          -1          -1          -1
          -1          -1          -1          -1          -1          -1
          -1          -1
Number of contracted shells                I               60
Number of primitive shells                 I              108
Pure/Cartesian d shells                    I                0
Pure/Cartesian f shells                    I                0
Highest angular momentum                   I                2
Largest degree of contraction              I                6
Shell types                                I   N=          60
           0          -1          -1          -1          -2           0
           0           0           1           0           0           0
           1           0           0           0           1           0
          -1          -1          -1          -2           0           0
           0           1           0           0           0           1
           0           0           0           1           0          -1
          -1          -1          -2           0           0           0
           1           0           0           0           1           0
           0           0           1           0          -1          -1
          -1          -2           0           0           0           1
Number of primitives per shell             I   N=          60
           6           3           1           1           1           3
           1           1           1           3           1           1
           1           3           1           1           1           6
           3           1           1           1           3           1
           1           1           3           1           1           1
           3           1           1           1           6           3
           1           1           1           3           1           1
           1           3           1           1           1           3
           1           1           1           6           3           1
           1           1           3           1           1           1
Shell to atom map                          I   N=          60
           1           1           1           1           1           2
           2           2           2           3           3           3
           3           4           4           4           4           5
           5           5           5           5           6           6
           6           6           7           7           7           7
           8           8           8           8           9           9
           9           9           9          10          10          10
          10          11          11          11          11          12
          12          12          12          13          13          13
          13          13          14          14          14          14
Primitive exponents                        R   N=         108
  4.56324000E+03  6.82024000E+02  1.54973000E+02  4.44553000E+01  1.30290000E+01
  1.82773000E+00  2.09642000E+01  4.80331000E+00  1.45933000E+00  4.83456000E-01
  1.45585000E-01  6.26000000E-01  3.38650000E+01  5.09479000E+00  1.15879000E+00
  3.25840000E-01  1.02741000E-01  7.50000000E-01  3.38650000E+01  5.09479000E+00
  1.15879000E+00  3.25840000E-01  1.02741000E-01  7.50000000E-01  3.38650000E+01
  5.09479000E+00  1.15879000E+00  3.25840000E-01  1.02741000E-01  7.50000000E-01
  4.56324000E+03  6.82024000E+02  1.54973000E+02  4.44553000E+01  1.30290000E+01
  1.82773000E+00  2.09642000E+01  4.80331000E+00  1.45933000E+00  4.83456000E-01
  1.45585000E-01  6.26000000E-01  3.38650000E+01  5.09479000E+00  1.15879000E+00
  3.25840000E-01  1.02741000E-01  7.50000000E-01  3.38650000E+01  5.09479000E+00
  1.15879000E+00  3.25840000E-01  1.02741000E-01  7.50000000E-01  3.38650000E+01
  5.09479000E+00  1.15879000E+00  3.25840000E-01  1.02741000E-01  7.50000000E-01
  4.56324000E+03  6.82024000E+02  1.54973000E+02  4.44553000E+01  1.30290000E+01
  1.82773000E+00  2.09642000E+01  4.80331000E+00  1.45933000E+00  4.83456000E-01
  1.45585000E-01  6.26000000E-01  3.38650000E+01  5.09479000E+00  1.15879000E+00
  3.25840000E-01  1.02741000E-01  7.50000000E-01  3.38650000E+01  5.09479000E+00
  1.15879000E+00  3.25840000E-01  1.02741000E-01  7.50000000E-01  3.38650000E+01
  5.09479000E+00  1.15879000E+00  3.25840000E-01  1.02741000E-01  7.50000000E-01
  6.29348000E+03  9.49044000E+02  2.18776000E+02  6.36916000E+01  1.88282000E+01
  2.72023000E+00  3.06331000E+01  7.02614000E+00  2.11205000E+00  6.84009000E-01
  2.00878000E-01  9.13000000E-01  3.38650000E+01  5.09479000E+00  1.15879000E+00
  3.25840000E-01  1.02741000E-01  7.50000000E-01
Contraction coefficients                   R   N=         108
  1.96665025E-03  1.52306019E-02  7.61269097E-02  2.60801033E-01  6.16462078E-01
  2.21006028E-01  1.14660081E-01  9.19999648E-01 -3.03068213E-03  1.00000000E+00
  1.00000000E+00  1.00000000E+00  2.54938145E-02  1.90373109E-01  8.52161486E-01
  1.00000000E+00  1.00000000E+00  1.00000000E+00  2.54938145E-02  1.90373109E-01
  8.52161486E-01  1.00000000E+00  1.00000000E+00  1.00000000E+00  2.54938145E-02
  1.90373109E-01  8.52161486E-01  1.00000000E+00  1.00000000E+00  1.00000000E+00
  1.96665025E-03  1.52306019E-02  7.61269097E-02  2.60801033E-01  6.16462078E-01
  2.21006028E-01  1.14660081E-01  9.19999648E-01 -3.03068213E-03  1.00000000E+00
  1.00000000E+00  1.00000000E+00  2.54938145E-02  1.90373109E-01  8.52161486E-01
  1.00000000E+00  1.00000000E+00  1.00000000E+00  2.54938145E-02  1.90373109E-01
  8.52161486E-01  1.00000000E+00  1.00000000E+00  1.00000000E+00  2.54938145E-02
  1.90373109E-01  8.52161486E-01  1.00000000E+00  1.00000000E+00  1.00000000E+00
  1.96665025E-03  1.52306019E-02  7.61269097E-02  2.60801033E-01  6.16462078E-01
  2.21006028E-01  1.14660081E-01  9.19999648E-01 -3.03068213E-03  1.00000000E+00
  1.00000000E+00  1.00000000E+00  2.54938145E-02  1.90373109E-01  8.52161486E-01
  1.00000000E+00  1.00000000E+00  1.00000000E+00  2.54938145E-02  1.90373109E-01
  8.52161486E-01  1.00000000E+00  1.00000000E+00  1.00000000E+00  2.54938145E-02
  1.90373109E-01  8.52161486E-01  1.00000000E+00  1.00000000E+00  1.00000000E+00
  1.96978815E-03  1.49612859E-02  7.35005308E-02  2.48936766E-01  6.02459433E-01
  2.56201759E-01  1.11906080E-01  9.21666655E-01 -2.56919183E-03  1.00000000E+00
  1.00000000E+00  1.00000000E+00  2.54938145E-02  1.90373109E-01  8.52161486E-01
  1.00000000E+00  1.00000000E+00  1.00000000E+00
P(S=P) Contraction coefficients            R   N=         108
  0.00000000E+00  0.00000000E+00  0.00000000E+00  0.00000000E+00  0.00000000E+00
  0.00000000E+00  4.02486927E-02  2.37593957E-01  8.15853851E-01  1.00000000E+00
  1.00000000E+00  0.00000000E+00  0.00000000E+00  0.00000000E+00  0.00000000E+00
  0.00000000E+00  0.00000000E+00  0.00000000E+00  0.00000000E+00  0.00000000E+00
  0.00000000E+00  0.00000000E+00  0.00000000E+00  0.00000000E+00  0.00000000E+00
  0.00000000E+00  0.00000000E+00  0.00000000E+00  0.00000000E+00  0.00000000E+00
  0.00000000E+00  0.00000000E+00  0.00000000E+00  0.00000000E+00  0.00000000E+00
  0.00000000E+00  4.02486927E-02  2.37593957E-01  8.15853851E-01  1.00000000E+00
  1.00000000E+00  0.00000000E+00  0.00000000E+00  0.00000000E+00  0.00000000E+00
  0.00000000E+00  0.00000000E+00  0.00000000E+00  0.00000000E+00  0.00000000E+00
  0.00000000E+00  0.00000000E+00  0.00000000E+00  0.00000000E+00  0.00000000E+00
  0.00000000E+00  0.00000000E+00  0.00000000E+00  0.00000000E+00  0.00000000E+00
  0.00000000E+00  0.00000000E+00  0.00000000E+00  0.00000000E+00  0.00000000E+00
  0.00000000E+00  4.02486927E-02  2.37593957E-01  8.15853851E-01  1.00000000E+00
  1.00000000E+00  0.00000000E+00  0.00000000E+00  0.00000000E+00  0.00000000E+00
  0.00000000E+00  0.00000000E+00  0.00000000E+00  0.00000000E+00  0.00000000E+00
  0.00000000E+00  0.00000000E+00  0.00000000E+00  0.00000000E+00  0.00000000E+00
  0.00000000E+00  0.00000000E+00  0.00000000E+00  0.00000000E+00  0.00000000E+00
  0.00000000E+00  0.00000000E+00  0.00000000E+00  0.00000000E+00  0.00000000E+00
  0.00000000E+00  3.83119186E-02  2.37403116E-01  8.17592398E-01  1.00000000E+00
  1.00000000E+00  0.00000000E+00  0.00000000E+00  0.00000000E+00  0.00000000E+00
  0.00000000E+00  0.00000000E+00  0.00000000E+00
Coordinates of each shell                  R   N=         180
 -1.37923297E+00  2.34554605E+00 -1.94848015E-01 -1.37923297E+00  2.34554605E+00
 -1.94848015E-01 -1.37923297E+00  2.34554605E+00 -1.94848015E-01 -1.37923297E+00
  2.34554605E+00 -1.94848015E-01 -1.37923297E+00  2.34554605E+00 -1.94848015E-01
 -3.30081885E+00  2.28430662E+00  5.36764586E-01 -3.30081885E+00  2.28430662E+00
  5.36764586E-01 -3.30081885E+00  2.28430662E+00  5.36764586E-01 -3.30081885E+00
  2.28430662E+00  5.36764586E-01 -3.91945883E-01  3.99532629E+00  5.36584768E-01
 -3.91945883E-01  3.99532629E+00  5.36584768E-01 -3.91945883E-01  3.99532629E+00
  5.36584768E-01 -3.91945883E-01  3.99532629E+00  5.36584768E-01 -1.40450601E+00
  2.38816016E+00 -2.25188553E+00 -1.40450601E+00  2.38816016E+00 -2.25188553E+00
 -1.40450601E+00  2.38816016E+00 -2.25188553E+00 -1.40450601E+00  2.38816016E+00
 -2.25188553E+00  2.72110522E+00  2.15237942E-02 -1.94927068E-01  2.72110522E+00
  2.15237942E-02 -1.94927068E-01  2.72110522E+00  2.15237942E-02 -1.94927068E-01
  2.72110522E+00  2.15237942E-02 -1.94927068E-01  2.72110522E+00  2.15237942E-02
 -1.94927068E-01  3.62960869E+00  1.71527335E+00  5.38111201E-01  3.62960869E+00
  1.71527335E+00  5.38111201E-01  3.62960869E+00  1.71527335E+00  5.38111201E-01
  3.62960869E+00  1.71527335E+00  5.38111201E-01  3.65551615E+00 -1.65921995E+00
  5.35479553E-01  3.65551615E+00 -1.65921995E+00  5.35479553E-01  3.65551615E+00
 -1.65921995E+00  5.35479553E-01  3.65551615E+00 -1.65921995E+00  5.35479553E-01
  2.77100298E+00  2.35843353E-02 -2.25197061E+00  2.77100298E+00  2.35843353E-02
 -2.25197061E+00  2.77100298E+00  2.35843353E-02 -2.25197061E+00  2.77100298E+00
  2.35843353E-02 -2.25197061E+00 -1.34195431E+00 -2.36708827E+00 -1.94906272E-01
 -1.34195431E+00 -2.36708827E+00 -1.94906272E-01 -1.34195431E+00 -2.36708827E+00
 -1.94906272E-01 -1.34195431E+00 -2.36708827E+00 -1.94906272E-01 -1.34195431E+00
 -2.36708827E+00 -1.94906272E-01 -1.36886094E+00 -2.40874749E+00 -2.25195910E+00
 -1.36886094E+00 -2.40874749E+00 -2.25195910E+00 -1.36886094E+00 -2.40874749E+00
 -2.25195910E+00 -1.36886094E+00 -2.40874749E+00 -2.25195910E+00 -3.27262423E-01
 -4.00102408E+00  5.34542909E-01 -3.27262423E-01 -4.00102408E+00  5.34542909E-01
 -3.27262423E-01 -4.00102408E+00  5.34542909E-01 -3.27262423E-01 -4.00102408E+00
  5.34542909E-01 -3.26343013E+00 -2.33727879E+00  5.38992197E-01 -3.26343013E+00
 -2.33727879E+00  5.38992197E-01 -3.26343013E+00 -2.33727879E+00  5.38992197E-01
 -3.26343013E+00 -2.33727879E+00  5.38992197E-01  1.57640806E-04 -3.15965972E-05
  6.38779260E-01  1.57640806E-04 -3.15965972E-05  6.38779260E-01  1.57640806E-04
 -3.15965972E-05  6.38779260E-01  1.57640806E-04 -3.15965972E-05  6.38779260E-01
  1.57640806E-04 -3.15965972E-05  6.38779260E-01  8.52361282E-05 -4.86799690E-05
  2.57197334E+00  8.52361282E-05 -4.86799690E-05  2.57197334E+00  8.52361282E-05
 -4.86799690E-05  2.57197334E+00  8.52361282E-05 -4.86799690E-05  2.57197334E+00
Constraint Structure                       R   N=          42
 -1.37923297E+00  2.34554605E+00 -1.94848015E-01 -3.30081885E+00  2.28430662E+00
  5.36764586E-01 -3.91945883E-01  3.99532629E+00  5.36584768E-01 -1.40450601E+00
  2.38816016E+00 -2.25188553E+00  2.72110522E+00  2.15237942E-02 -1.94927068E-01
  3.62960869E+00  1.71527335E+00  5.38111201E-01  3.65551615E+00 -1.65921995E+00
  5.35479553E-01  2.77100298E+00  2.35843353E-02 -2.25197061E+00 -1.34195431E+00
 -2.36708827E+00 -1.94906272E-01 -1.36886094E+00 -2.40874749E+00 -2.25195910E+00
 -3.27262423E-01 -4.00102408E+00  5.34542909E-01 -3.26343013E+00 -2.33727879E+00
  5.38992197E-01  1.57640806E-04 -3.15965972E-05  6.38779260E-01  8.52361282E-05
 -4.86799690E-05  2.57197334E+00
Num ILSW                                   I              100
ILSW                                       I   N=         100
           0           0           0           1           2           0
           0           0           0           0         402          -1
           0           0           0           0           2           0
           0           0           1           0           1           0
           1           0           0           0           0           0
           0           0      100000           0          -1           0
           0           0           0           0           0           0
           0           0           0           1           0           0
           0           0           1           0           0           0
           0           0           4          41           0           0
           0           0           5           0           0           0
           0           0           0           0           0           0
           0           0           0           0           0           0
           0           0           0           0           0           0
           0           0           0           0           0           0
           0           0           0           0           0           0
           0           0           0           0
Num RLSW                                   I               41
RLSW                                       R   N=          41
  8.00000000E-01  7.20000000E-01  1.00000000E+00  8.10000000E-01  2.00000000E-01
  0.00000000E+00  0.00000000E+00  1.00000000E+00  0.00000000E+00  0.00000000E+00
  0.00000000E+00  0.00000000E+00  1.00000000E+00  0.00000000E+00  0.00000000E+00
  0.00000000E+00  0.00000000E+00  1.00000000E+00  0.00000000E+00  0.00000000E+00
  0.00000000E+00  0.00000000E+00  1.00000000E+00  0.00000000E+00  0.00000000E+00
  0.00000000E+00  0.00000000E+00  1.00000000E+00  0.00000000E+00  0.00000000E+00
  0.00000000E+00  0.00000000E+00  1.00000000E+00  0.00000000E+00  0.00000000E+00
  0.00000000E+00  0.00000000E+00  0.00000000E+00  1.00000000E+00  1.00000000E+00
  0.00000000E+00
MxBond                                     I                4
NBond                                      I   N=          14
           4           1           1           1           4           1
           1           1           4           1           1           1
           4           1
IBond                                      I   N=          56
           2           3           4          13           1           0
           0           0           1           0           0           0
           1           0           0           0           6           7
           8          13           5           0           0           0
           5           0           0           0           5           0
           0           0          10          11          12          13
           9           0           0           0           9           0
           0           0           9           0           0           0
           1           5           9          14          13           0
           0           0
RBond                                      R   N=          56
  1.00000000E+00  1.00000000E+00  1.00000000E+00  1.00000000E+00  1.00000000E+00
  0.00000000E+00  0.00000000E+00  0.00000000E+00  1.00000000E+00  0.00000000E+00
  0.00000000E+00  0.00000000E+00  1.00000000E+00  0.00000000E+00  0.00000000E+00
  0.00000000E+00  1.00000000E+00  1.00000000E+00  1.00000000E+00  1.00000000E+00
  1.00000000E+00  0.00000000E+00  0.00000000E+00  0.00000000E+00  1.00000000E+00
  0.00000000E+00  0.00000000E+00  0.00000000E+00  1.00000000E+00  0.00000000E+00
  0.00000000E+00  0.00000000E+00  1.00000000E+00  1.00000000E+00  1.00000000E+00
  1.00000000E+00  1.00000000E+00  0.00000000E+00  0.00000000E+00  0.00000000E+00
  1.00000000E+00  0.00000000E+00  0.00000000E+00  0.00000000E+00  1.00000000E+00
  0.00000000E+00  0.00000000E+00  0.00000000E+00  1.00000000E+00  1.00000000E+00
  1.00000000E+00  1.00000000E+00  1.00000000E+00  0.00000000E+00  0.00000000E+00
  0.00000000E+00
Virial Ratio                               R      2.004888088255890E+00
SCF Energy                                 R     -1.749008037909471E+02
Total Energy                               R     -1.749008037909471E+02
RMS Force                                  R      1.958946485634428E-05
RMS Density                                R      5.219245941765142E-09
External E-field                           R   N=          35
  0.00000000E+00  0.00000000E+00  0.00000000E+00  0.00000000E+00  0.00000000E+00
  0.00000000E+00  0.00000000E+00  0.00000000E+00  0.00000000E+00  0.00000000E+00
  0.00000000E+00  0.00000000E+00  0.00000000E+00  0.00000000E+00  0.00000000E+00
  0.00000000E+00  0.00000000E+00  0.00000000E+00  0.00000000E+00  0.00000000E+00
  0.00000000E+00  0.00000000E+00  0.00000000E+00  0.00000000E+00  0.00000000E+00
  0.00000000E+00  0.00000000E+00  0.00000000E+00  0.00000000E+00  0.00000000E+00
  0.00000000E+00  0.00000000E+00  0.00000000E+00  0.00000000E+00  0.00000000E+00
IOpCl                                      I                0
IROHF                                      I                0
Alpha Orbital Energies                     R   N=         132
 -1.46336268E+01 -1.04071785E+01 -1.04071777E+01 -1.04071667E+01 -1.20549239E+00
 -9.36076393E-01 -9.36050928E-01 -8.65560750E-01 -7.55759515E-01 -6.98262835E-01
 -6.98242938E-01 -6.19306314E-01 -6.19273484E-01 -5.95992941E-01 -5.94240442E-01
 -5.94229605E-01 -5.92083066E-01 -1.70649899E-01 -1.14020706E-01 -1.01577674E-01
 -9.15747915E-02 -9.15588491E-02 -8.10299839E-02 -8.10182079E-02 -6.54462684E-02
 -2.69146742E-02 -2.68972593E-02 -1.73699103E-02 -1.73301675E-02 -1.91247406E-03
  6.95016978E-02  6.95391746E-02  1.22359056E-01  1.41597100E-01  1.41622403E-01
  2.15563230E-01  2.52871966E-01  2.52909267E-01  2.52971143E-01  2.62695319E-01
  3.65336448E-01  3.65395614E-01  3.68926808E-01  3.86591627E-01  3.86609018E-01
  4.12713597E-01  4.21766897E-01  4.39770451E-01  4.39806539E-01  4.45502342E-01
  4.82220131E-01  4.82239289E-01  4.89071954E-01  7.18321767E-01  7.18583075E-01
  7.85510205E-01  7.85804388E-01  9.59325923E-01  1.00558038E+00  1.00564234E+00
  1.14287311E+00  1.19200473E+00  1.20321167E+00  1.20333834E+00  1.23221902E+00
  1.23228397E+00  1.24178246E+00  1.27426955E+00  1.27430303E+00  1.29565840E+00
  1.30556920E+00  1.30561234E+00  1.32462412E+00  1.42961485E+00  1.42970931E+00
  1.43030582E+00  1.50975507E+00  1.53845473E+00  1.53859157E+00  1.56812518E+00
  1.56829285E+00  1.60254747E+00  1.64335711E+00  1.75305800E+00  1.75321497E+00
  1.83587740E+00  1.85678968E+00  1.85701765E+00  1.89962273E+00  1.89975751E+00
  1.94349728E+00  1.96460423E+00  2.09337666E+00  2.09344705E+00  2.14745168E+00
  2.16148001E+00  2.23146673E+00  2.23155749E+00  2.26394518E+00  2.26398956E+00
  2.27910011E+00  2.33273986E+00  2.34299743E+00  2.34310468E+00  2.38485125E+00
  2.38485571E+00  2.42520004E+00  2.42524613E+00  2.46387086E+00  2.46730111E+00
  2.58259309E+00  2.58264747E+00  2.65052369E+00  2.79164867E+00  2.79172148E+00
  2.95173566E+00  3.15107087E+00  3.15111428E+00  3.38015928E+00  3.55459702E+00
  3.56766360E+00  3.56770429E+00  3.59139206E+00  3.59141461E+00  3.61098515E+00
  4.42722439E+00  4.52144841E+00  4.52161183E+00  2.36460929E+01  2.36797252E+01
  2.36797617E+01  3.52131544E+01
Alpha MO coefficients                      R   N=       17424
  1.74384375E-05 -5.59089486E-05  1.06133753E-04 -1.80512115E-04  8.57944541E-05
  2.42034724E-04 -1.06486583E-04  1.81281554E-04 -9.46170088E-05  4.49521282E-03
  6.00866081E-04 -1.02199427E-03  7.90695887E-04  1.13614806E-04 -1.43923449E-04
  2.44848282E-04  1.62907912E-04  2.92975628E-04  3.13600476E-05 -1.08322150E-03
 -1.86306409E-04 -2.78255190E-04  1.95496931E-05  5.79606248E-05  3.13527428E-05
 -1.08326318E-03 -1.86147868E-04  1.18122826E-04  2.52891844E-04  5.78769985E-05
 -6.15329889E-05 -5.74053735E-04 -7.00404009E-05  3.32313849E-06 -5.61369699E-06
 -1.76453896E-04  1.74408147E-05 -5.59207566E-05 -2.09384759E-04 -1.64472551E-06
  8.58271770E-05  2.42188431E-04  2.10104255E-04  1.48970564E-06 -9.48439273E-05
  4.49598002E-03 -1.18527652E-03 -1.02729227E-05  7.91340838E-04  1.13837637E-04
  2.84088467E-04  2.24310360E-06 -3.35140763E-04 -5.32256210E-06  3.12855210E-05
 -1.08294486E-03 -1.86120132E-04  1.56009709E-04  2.31121498E-04  5.80108148E-05
  3.14034953E-05 -1.08370577E-03 -1.86436526E-04  1.59732935E-04 -2.28840805E-04
  5.77154097E-05 -6.15247333E-05 -5.74119516E-04 -7.03223415E-05 -6.26558321E-06
  1.07755063E-07 -1.76711365E-04  1.74378538E-05 -5.59061575E-05  1.03217682E-04
  1.82147517E-04  8.57890926E-05  2.42145220E-04 -1.03125311E-04 -1.82833952E-04
 -9.46246643E-05  4.49544546E-03  5.85766053E-04  1.03055937E-03  7.91278020E-04
  1.13716710E-04 -1.40004480E-04 -2.47070985E-04  1.72002542E-04 -2.87660279E-04
 -6.15613196E-05 -5.73742486E-04 -7.03586551E-05  3.02000731E-06  5.74141323E-06
 -1.76508875E-04  3.14250976E-05 -1.08382647E-03 -1.86533424E-04  1.22286585E-04
 -2.51029115E-04  5.75965827E-05  3.12404246E-05 -1.08250934E-03 -1.85949025E-04
 -2.77555911E-04 -2.38026193E-05  5.81495913E-05  5.57431686E-01  4.65756124E-01
 -1.90897485E-08  4.19655020E-08  1.78489202E-05  1.57684064E-02  2.08616135E-08
 -1.21007634E-07  6.61800811E-04 -1.31554927E-02 -2.31868967E-07  7.38620444E-07
  1.27365258E-03  5.39986426E-04 -3.81602194E-08 -2.76610187E-08  9.37661366E-08
  2.73964499E-08 -1.70239573E-04 -1.61235730E-04 -2.52188592E-04 -3.33462117E-08
 -4.88116114E-08  1.42676565E-03  4.47155060E-01  3.67949531E-01  4.30742405E-04
 -7.38374796E-04  2.67226174E-04  1.51703198E-02 -8.48599880E-04  1.43717267E-03
 -4.89076973E-04 -6.37761422E-03 -2.19073019E-04  1.29005269E-03  7.82214094E-04
  3.28835333E-04 -2.21002250E-04  3.98482508E-04  4.12361017E-04  6.79582023E-04
  1.14900584E-05 -2.06622119E-03  1.23027463E-03 -1.63402286E-03 -2.39679192E-04
  5.91087175E-04  4.60176127E-05 -2.38968223E-03  9.35418133E-04  9.75667329E-04
  1.33730934E-03  6.33421236E-04 -7.18837814E-05 -1.37378849E-03  1.51721644E-03
  2.91153006E-05 -1.42894705E-04 -1.64257358E-03 -9.15638655E-02 -7.53438667E-02
  1.75824070E-04 -8.57400273E-06 -5.44910041E-05 -3.12568349E-03 -3.39332993E-04
 -1.10559204E-05  9.76422915E-05  1.42104092E-03 -3.09383658E-04  1.51217002E-03
 -1.79984047E-04 -6.78366216E-05 -9.20688707E-05  3.68893947E-05  1.66029887E-04
 -9.59165030E-05  5.16767624E-05 -8.64914000E-05 -6.99779409E-04 -6.53960878E-05
 -3.30662970E-04 -5.35232918E-05 -6.08075361E-05  9.67384800E-04  2.60308575E-04
 -1.88406131E-04  2.92976952E-04 -1.91690784E-04  1.85381074E-05  2.41840128E-04
 -3.25168010E-04  3.27286404E-05 -1.53962626E-04  3.30994827E-04 -3.29546980E-01
 -2.71172046E-01 -3.05204702E-04 -5.52309581E-04 -1.96545584E-04 -1.12083146E-02
  6.10057323E-04  1.06409259E-03  3.56369257E-04  4.86847951E-03 -4.37104864E-04
  1.36306105E-03 -6.04717983E-04 -2.43065771E-04  1.41921845E-04  3.03192204E-04
 -3.60604424E-04  4.69761327E-04  5.86020259E-05  9.54609122E-04 -1.13805126E-03
  4.17844170E-05 -1.46086523E-04  1.20265967E-03 -5.84169709E-05  1.98525789E-03
 -4.62268883E-04 -7.17445906E-04  9.89244322E-04 -4.93942875E-04  1.96908818E-05
  1.25326209E-03 -1.12898996E-03  1.19737360E-03 -1.90238116E-04 -4.00632325E-04
 -9.81490031E-07 -3.84151633E-06 -4.73858936E-05  2.04388459E-04 -1.82862219E-06
  3.43994991E-05 -8.74375170E-06  3.73862939E-05 -5.25880267E-06 -9.23033948E-05
  3.97161820E-05 -1.67480355E-04  1.70965901E-05  3.68119247E-06 -2.30171883E-05
  9.90751530E-05  4.16420422E-05  2.01233200E-04 -3.34505837E-06  1.87375399E-05
 -8.10241060E-06 -5.06552043E-05  2.18273364E-04 -5.96336416E-06 -1.49571745E-01
 -1.23078830E-01 -1.53019523E-04  2.40888742E-04 -8.96306666E-05 -5.05602556E-03
  2.77064467E-04 -4.86933365E-04  1.66194834E-04  2.02363164E-03  1.46072808E-03
  4.36853586E-04 -2.42235671E-04 -1.09523431E-04  1.09588838E-04 -1.13861879E-04
 -4.39041578E-05 -2.77497085E-04 -6.57042829E-05  1.27480150E-03  1.05483452E-04
  5.63869619E-04  1.21793455E-05 -2.75164709E-04  4.42326870E-05  2.44718111E-04
 -8.33505998E-04 -3.73518534E-04 -4.05175936E-04 -1.39584548E-04  2.03355187E-05
  4.97213236E-04 -4.93959695E-04 -1.51369230E-04 -3.93170664E-05  5.54523762E-04
  4.35457300E-01  3.58321635E-01 -8.33969496E-04 -8.79933460E-06  2.59566581E-04
  1.48119299E-02  1.62137312E-03  1.07151407E-05 -4.69635916E-04 -6.44361537E-03
  1.28347047E-03  3.49271103E-04  8.01935830E-04  3.21101043E-04  4.40613767E-04