 Entering Gaussian System, Link 0=g09
 Input=/work/js4811/cations/NMe3H_plus/NMe3H_plus.com
 Output=/work/js4811/cations/NMe3H_plus/NMe3H_plus.log
 Initial command:
 /apps/gaussian/g09_d01/g09/l1.exe "/export111/work/js4811/Gau-31091.inp" -scrdir="/export111/work/js4811/"
 Entering Link 1 = /apps/gaussian/g09_d01/g09/l1.exe PID=     31092.
  
 Copyright (c) 1988,1990,1992,1993,1995,1998,2003,2009,2013,
            Gaussian, Inc.  All Rights Reserved.
  
 This is part of the Gaussian(R) 09 program.  It is based on
 the Gaussian(R) 03 system (copyright 2003, Gaussian, Inc.),
 the Gaussian(R) 98 system (copyright 1998, Gaussian, Inc.),
 the Gaussian(R) 94 system (copyright 1995, Gaussian, Inc.),
 the Gaussian 92(TM) system (copyright 1992, Gaussian, Inc.),
 the Gaussian 90(TM) system (copyright 1990, Gaussian, Inc.),
 the Gaussian 88(TM) system (copyright 1988, Gaussian, Inc.),
 the Gaussian 86(TM) system (copyright 1986, Carnegie Mellon
 University), and the Gaussian 82(TM) system (copyright 1983,
 Carnegie Mellon University). Gaussian is a federally registered
 trademark of Gaussian, Inc.
  
 This software contains proprietary and confidential information,
 including trade secrets, belonging to Gaussian, Inc.
  
 This software is provided under written license and may be
 used, copied, transmitted, or stored only in accord with that
 written license.
  
 The following legend is applicable only to US Government
 contracts under FAR:
  
                    RESTRICTED RIGHTS LEGEND
  
 Use, reproduction and disclosure by the US Government is
 subject to restrictions as set forth in subparagraphs (a)
 and (c) of the Commercial Computer Software - Restricted
 Rights clause in FAR 52.227-19.
  
 Gaussian, Inc.
 340 Quinnipiac St., Bldg. 40, Wallingford CT 06492
  
  
 ---------------------------------------------------------------
 Warning -- This program may not be used in any manner that
 competes with the business of Gaussian, Inc. or will provide
 assistance to any competitor of Gaussian, Inc.  The licensee
 of this program is prohibited from giving any competitor of
 Gaussian, Inc. access to this program.  By using this program,
 the user acknowledges that Gaussian, Inc. is engaged in the
 business of creating and licensing software in the field of
 computational chemistry and represents and warrants to the
 licensee that it is not a competitor of Gaussian, Inc. and that
 it will not use this program in any manner prohibited above.
 ---------------------------------------------------------------
  

 Cite this work as:
 Gaussian 09, Revision D.01,
 M. J. Frisch, G. W. Trucks, H. B. Schlegel, G. E. Scuseria, 
 M. A. Robb, J. R. Cheeseman, G. Scalmani, V. Barone, B. Mennucci, 
 G. A. Petersson, H. Nakatsuji, M. Caricato, X. Li, H. P. Hratchian, 
 A. F. Izmaylov, J. Bloino, G. Zheng, J. L. Sonnenberg, M. Hada, 
 M. Ehara, K. Toyota, R. Fukuda, J. Hasegawa, M. Ishida, T. Nakajima, 
 Y. Honda, O. Kitao, H. Nakai, T. Vreven, J. A. Montgomery, Jr., 
 J. E. Peralta, F. Ogliaro, M. Bearpark, J. J. Heyd, E. Brothers, 
 K. N. Kudin, V. N. Staroverov, T. Keith, R. Kobayashi, J. Normand, 
 K. Raghavachari, A. Rendell, J. C. Burant, S. S. Iyengar, J. Tomasi, 
 M. Cossi, N. Rega, J. M. Millam, M. Klene, J. E. Knox, J. B. Cross, 
 V. Bakken, C. Adamo, J. Jaramillo, R. Gomperts, R. E. Stratmann, 
 O. Yazyev, A. J. Austin, R. Cammi, C. Pomelli, J. W. Ochterski, 
 R. L. Martin, K. Morokuma, V. G. Zakrzewski, G. A. Voth, 
 P. Salvador, J. J. Dannenberg, S. Dapprich, A. D. Daniels, 
 O. Farkas, J. B. Foresman, J. V. Ortiz, J. Cioslowski, 
 and D. J. Fox, Gaussian, Inc., Wallingford CT, 2013.
 
 ******************************************
 Gaussian 09:  ES64L-G09RevD.01 24-Apr-2013
                10-Mar-2016 
 ******************************************
 %chk=/work/js4811/cations/NMe3H_plus/NMe3H_plus.chk
 ----------------------------
 # B3LYP/6-311G(d,p) Opt Freq
 ----------------------------
 1/14=-1,18=20,19=15,26=3,38=1/1,3;
 2/9=110,12=2,17=6,18=5,40=1/2;
 3/5=4,6=6,7=101,11=2,16=1,25=1,30=1,71=1,74=-5/1,2,3;
 4//1;
 5/5=2,38=5/2;
 6/7=2,8=2,9=2,10=2,28=1/1;
 7//1,2,3,16;
 1/14=-1,18=20,19=15,26=3/3(2);
 2/9=110/2;
 99//99;
 2/9=110/2;
 3/5=4,6=6,7=101,11=2,16=1,25=1,30=1,71=1,74=-5/1,2,3;
 4/5=5,16=3,69=1/1;
 5/5=2,38=5/2;
 7//1,2,3,16;
 1/14=-1,18=20,19=15,26=3/3(-5);
 2/9=110/2;
 6/7=2,8=2,9=2,10=2,19=2,28=1/1;
 99/9=1/99;
 -----
 Title
 -----
 Symbolic Z-matrix:
 Charge =  1 Multiplicity = 1
 C
 H                    1     1.08665 
 H                    1     1.08665  2     110.2883 
 H                    1     1.08665  3     110.28837  2     122.05917  0
 C                    1     2.45251  4     89.28013  2     148.97227  0
 H                    5     1.08665  1     89.28163  4     110.30013  0
 H                    5     1.08665  1     143.90562  4    -124.8497  0
 H                    5     1.08665  1     89.28076  4    -0.00116  0
 C                    5     2.45251  1     60.      4    -89.58684  0
 H                    9     1.08665  5     89.28064  1     89.586   0
 H                    9     1.08665  5     89.28184  1    -160.11274  0
 H                    9     1.08665  5     143.90563  1    -35.26235  0
 N                    9     1.50185  5     35.26439  1    -35.26441  0
 H                    13    1.       9     109.4712  5    -120.00002  0
 
     1 tetrahedral angles replaced.

 GradGradGradGradGradGradGradGradGradGradGradGradGradGradGradGradGradGrad
 Berny optimization.
 Initialization pass.
                           ----------------------------
                           !    Initial Parameters    !
                           ! (Angstroms and Degrees)  !
 --------------------------                            --------------------------
 ! Name  Definition              Value          Derivative Info.                !
 --------------------------------------------------------------------------------
 ! R1    R(1,2)                  1.0866         estimate D2E/DX2                !
 ! R2    R(1,3)                  1.0866         estimate D2E/DX2                !
 ! R3    R(1,4)                  1.0866         estimate D2E/DX2                !
 ! R4    R(1,13)                 1.5019         estimate D2E/DX2                !
 ! R5    R(5,6)                  1.0866         estimate D2E/DX2                !
 ! R6    R(5,7)                  1.0866         estimate D2E/DX2                !
 ! R7    R(5,8)                  1.0866         estimate D2E/DX2                !
 ! R8    R(5,13)                 1.5019         estimate D2E/DX2                !
 ! R9    R(9,10)                 1.0866         estimate D2E/DX2                !
 ! R10   R(9,11)                 1.0866         estimate D2E/DX2                !
 ! R11   R(9,12)                 1.0866         estimate D2E/DX2                !
 ! R12   R(9,13)                 1.5019         estimate D2E/DX2                !
 ! R13   R(13,14)                1.0            estimate D2E/DX2                !
 ! A1    A(2,1,3)              110.2883         estimate D2E/DX2                !
 ! A2    A(2,1,4)              110.2883         estimate D2E/DX2                !
 ! A3    A(2,1,13)             108.6412         estimate D2E/DX2                !
 ! A4    A(3,1,4)              110.2884         estimate D2E/DX2                !
 ! A5    A(3,1,13)             108.6412         estimate D2E/DX2                !
 ! A6    A(4,1,13)             108.6412         estimate D2E/DX2                !
 ! A7    A(6,5,7)              110.2884         estimate D2E/DX2                !
 ! A8    A(6,5,8)              110.2883         estimate D2E/DX2                !
 ! A9    A(6,5,13)             108.6412         estimate D2E/DX2                !
 ! A10   A(7,5,8)              110.2883         estimate D2E/DX2                !
 ! A11   A(7,5,13)             108.6412         estimate D2E/DX2                !
 ! A12   A(8,5,13)             108.6412         estimate D2E/DX2                !
 ! A13   A(10,9,11)            110.2883         estimate D2E/DX2                !
 ! A14   A(10,9,12)            110.2883         estimate D2E/DX2                !
 ! A15   A(10,9,13)            108.6413         estimate D2E/DX2                !
 ! A16   A(11,9,12)            110.2883         estimate D2E/DX2                !
 ! A17   A(11,9,13)            108.6412         estimate D2E/DX2                !
 ! A18   A(12,9,13)            108.6412         estimate D2E/DX2                !
 ! A19   A(1,13,5)             109.4712         estimate D2E/DX2                !
 ! A20   A(1,13,9)             109.4712         estimate D2E/DX2                !
 ! A21   A(1,13,14)            109.4712         estimate D2E/DX2                !
 ! A22   A(5,13,9)             109.4712         estimate D2E/DX2                !
 ! A23   A(5,13,14)            109.4712         estimate D2E/DX2                !
 ! A24   A(9,13,14)            109.4712         estimate D2E/DX2                !
 ! D1    D(2,1,13,5)           179.9977         estimate D2E/DX2                !
 ! D2    D(2,1,13,9)            59.9977         estimate D2E/DX2                !
 ! D3    D(2,1,13,14)          -60.0023         estimate D2E/DX2                !
 ! D4    D(3,1,13,5)           -60.0023         estimate D2E/DX2                !
 ! D5    D(3,1,13,9)           179.9977         estimate D2E/DX2                !
 ! D6    D(3,1,13,14)           59.9977         estimate D2E/DX2                !
 ! D7    D(4,1,13,5)            59.9977         estimate D2E/DX2                !
 ! D8    D(4,1,13,9)           -60.0023         estimate D2E/DX2                !
 ! D9    D(4,1,13,14)          179.9977         estimate D2E/DX2                !
 ! D10   D(6,5,13,1)            60.0009         estimate D2E/DX2                !
 ! D11   D(6,5,13,9)          -179.9991         estimate D2E/DX2                !
 ! D12   D(6,5,13,14)          -59.9991         estimate D2E/DX2                !
 ! D13   D(7,5,13,1)          -179.9991         estimate D2E/DX2                !
 ! D14   D(7,5,13,9)           -59.9991         estimate D2E/DX2                !
 ! D15   D(7,5,13,14)           60.001          estimate D2E/DX2                !
 ! D16   D(8,5,13,1)           -59.9991         estimate D2E/DX2                !
 ! D17   D(8,5,13,9)            60.0008         estimate D2E/DX2                !
 ! D18   D(8,5,13,14)         -179.9991         estimate D2E/DX2                !
 ! D19   D(10,9,13,1)           60.0012         estimate D2E/DX2                !
 ! D20   D(10,9,13,5)          -59.9987         estimate D2E/DX2                !
 ! D21   D(10,9,13,14)        -179.9988         estimate D2E/DX2                !
 ! D22   D(11,9,13,1)         -179.9987         estimate D2E/DX2                !
 ! D23   D(11,9,13,5)           60.0013         estimate D2E/DX2                !
 ! D24   D(11,9,13,14)         -59.9987         estimate D2E/DX2                !
 ! D25   D(12,9,13,1)          -59.9987         estimate D2E/DX2                !
 ! D26   D(12,9,13,5)         -179.9987         estimate D2E/DX2                !
 ! D27   D(12,9,13,14)          60.0013         estimate D2E/DX2                !
 --------------------------------------------------------------------------------
 Trust Radius=3.00D-01 FncErr=1.00D-07 GrdErr=1.00D-06
 Number of steps in this run=     74 maximum allowed number of steps=    100.
 GradGradGradGradGradGradGradGradGradGradGradGradGradGradGradGradGradGrad

                          Input orientation:                          
 ---------------------------------------------------------------------
 Center     Atomic      Atomic             Coordinates (Angstroms)
 Number     Number       Type             X           Y           Z
 ---------------------------------------------------------------------
      1          6           0        0.000000    0.000000    0.000000
      2          1           0        0.000000    0.000000    1.086650
      3          1           0        1.019233    0.000000   -0.376789
      4          1           0       -0.541004    0.863800   -0.376790
      5          6           0       -0.699857   -1.264002   -1.981747
      6          1           0        0.327144   -1.249945   -2.336540
      7          1           0       -1.200971   -2.169105   -2.314134
      8          1           0       -1.233092   -0.386141   -2.336473
      9          6           0       -2.101436   -1.264057    0.030813
     10          1           0       -2.619109   -0.386216   -0.346304
     11          1           0       -2.586948   -2.169179   -0.323927
     12          1           0       -2.078040   -1.250002    1.117120
     13          7           0       -0.689271   -1.244996   -0.480053
     14          1           0       -0.200887   -2.048622   -0.139957
 ---------------------------------------------------------------------
                    Distance matrix (angstroms):
                    1          2          3          4          5
     1  C    0.000000
     2  H    1.086650   0.000000
     3  H    1.086649   1.783393   0.000000
     4  H    1.086649   1.783393   1.783393   0.000000
     5  C    2.452514   3.391543   2.669993   2.669956   0.000000
     6  H    2.669982   3.658909   2.425278   3.010352   1.086649
     7  H    3.391543   4.208643   3.658911   3.658876   1.086650
     8  H    2.669967   3.658878   3.010387   2.425221   1.086650
     9  C    2.452514   2.669956   3.391542   2.669993   2.452513
    10  H    2.669985   3.010357   3.658911   2.425281   2.669965
    11  H    3.391543   3.658875   4.208643   3.658913   2.669986
    12  H    2.669964   2.425218   3.658875   3.010382   3.391542
    13  N    1.501852   2.116523   2.116522   2.116522   1.501852
    14  H    2.063200   2.396199   2.396171   2.941764   2.063200
                    6          7          8          9         10
     6  H    0.000000
     7  H    1.783394   0.000000
     8  H    1.783394   1.783393   0.000000
     9  C    3.391542   2.669967   2.669981   0.000000
    10  H    3.658890   3.010343   2.425246   1.086650   0.000000
    11  H    3.658897   2.425253   3.010397   1.086650   1.783394
    12  H    4.208643   3.658893   3.658892   1.086650   1.783393
    13  N    2.116522   2.116522   2.116522   1.501851   2.116522
    14  H    2.396180   2.396191   2.941763   2.063199   2.941764
                   11         12         13         14
    11  H    0.000000
    12  H    1.783393   0.000000
    13  N    2.116522   2.116522   0.000000
    14  H    2.396177   2.396193   1.000000   0.000000
 This structure is nearly, but not quite of a higher symmetry.
 Consider Symm=Loose if the higher symmetry is desired.
 Stoichiometry    C3H10N(1+)
 Framework group  C1[X(C3H10N)]
 Deg. of freedom    36
 Full point group                 C1      NOp   1
 Largest Abelian subgroup         C1      NOp   1
 Largest concise Abelian subgroup C1      NOp   1
                         Standard orientation:                         
 ---------------------------------------------------------------------
 Center     Atomic      Atomic             Coordinates (Angstroms)
 Number     Number       Type             X           Y           Z
 ---------------------------------------------------------------------
      1          6           0        0.776872   -0.969412   -0.688819
      2          1           0        1.361382   -0.593281   -1.524093
      3          1           0        1.387690   -1.612109   -0.060608
      4          1           0       -0.091997   -1.512217   -1.051083
      5          6           0       -0.504703   -0.302280    1.292928
      6          1           0        0.120332   -0.952403    1.899128
      7          1           0       -0.837850    0.551551    1.876703
      8          1           0       -1.359318   -0.852492    0.908599
      9          6           0       -0.540789    1.098834   -0.719632
     10          1           0       -1.395023    0.533066   -1.081570
     11          1           0       -0.873503    1.937101   -0.113481
     12          1           0        0.058395    1.451953   -1.554553
     13          7           0        0.306351    0.197137    0.131750
     14          1           0        1.097156    0.706019    0.471847
 ---------------------------------------------------------------------
 Rotational constants (GHZ):      8.1789657      8.1789634      4.8090000
 Standard basis: 6-311G(d,p) (5D, 7F)
 There are   136 symmetry adapted cartesian basis functions of A   symmetry.
 There are   132 symmetry adapted basis functions of A   symmetry.
   132 basis functions,   208 primitive gaussians,   136 cartesian basis functions
    17 alpha electrons       17 beta electrons
       nuclear repulsion energy       146.9674036869 Hartrees.
 NAtoms=   14 NActive=   14 NUniq=   14 SFac= 1.00D+00 NAtFMM=   60 NAOKFM=F Big=F
 Integral buffers will be    131072 words long.
 Raffenetti 2 integral format.
 Two-electron integral symmetry is turned on.
 One-electron integrals computed using PRISM.
 NBasis=   132 RedAO= T EigKep=  4.84D-03  NBF=   132
 NBsUse=   132 1.00D-06 EigRej= -1.00D+00 NBFU=   132
 ExpMin= 1.03D-01 ExpMax= 6.29D+03 ExpMxC= 9.49D+02 IAcc=1 IRadAn=         1 AccDes= 0.00D+00
 Harris functional with IExCor=  402 and IRadAn=       1 diagonalized for initial guess.
 HarFok:  IExCor=  402 AccDes= 0.00D+00 IRadAn=         1 IDoV= 1 UseB2=F ITyADJ=14
 ICtDFT=  3500011 ScaDFX=  1.000000  1.000000  1.000000  1.000000
 FoFCou: FMM=F IPFlag=           0 FMFlag=      100000 FMFlg1=           0
         NFxFlg=           0 DoJE=T BraDBF=F KetDBF=T FulRan=T
         wScrn=  0.000000 ICntrl=     500 IOpCl=  0 I1Cent=   200000004 NGrid=           0
         NMat0=    1 NMatS0=      1 NMatT0=    0 NMatD0=    1 NMtDS0=    0 NMtDT0=    0
 Petite list used in FoFCou.
 Requested convergence on RMS density matrix=1.00D-08 within 128 cycles.
 Requested convergence on MAX density matrix=1.00D-06.
 Requested convergence on             energy=1.00D-06.
 No special actions if energy rises.
 Integral accuracy reduced to 1.0D-05 until final iterations.
 Initial convergence to 1.0D-05 achieved.  Increase integral accuracy.
 SCF Done:  E(RB3LYP) =  -174.898969255     A.U. after   12 cycles
            NFock= 12  Conv=0.36D-08     -V/T= 2.0043

 **********************************************************************

            Population analysis using the SCF density.

 **********************************************************************

 Orbital symmetries:
       Occupied  (A) (A) (A) (A) (A) (A) (A) (A) (A) (A) (A) (A)
                 (A) (A) (A) (A) (A)
       Virtual   (A) (A) (A) (A) (A) (A) (A) (A) (A) (A) (A) (A)
                 (A) (A) (A) (A) (A) (A) (A) (A) (A) (A) (A) (A)
                 (A) (A) (A) (A) (A) (A) (A) (A) (A) (A) (A) (A)
                 (A) (A) (A) (A) (A) (A) (A) (A) (A) (A) (A) (A)
                 (A) (A) (A) (A) (A) (A) (A) (A) (A) (A) (A) (A)
                 (A) (A) (A) (A) (A) (A) (A) (A) (A) (A) (A) (A)
                 (A) (A) (A) (A) (A) (A) (A) (A) (A) (A) (A) (A)
                 (A) (A) (A) (A) (A) (A) (A) (A) (A) (A) (A) (A)
                 (A) (A) (A) (A) (A) (A) (A) (A) (A) (A) (A) (A)
                 (A) (A) (A) (A) (A) (A) (A)
 The electronic state is 1-A.
 Alpha  occ. eigenvalues --  -14.63273 -10.40669 -10.40668 -10.40667  -1.21140
 Alpha  occ. eigenvalues --   -0.93631  -0.93630  -0.87656  -0.75835  -0.69946
 Alpha  occ. eigenvalues --   -0.69946  -0.62163  -0.62163  -0.60704  -0.59137
 Alpha  occ. eigenvalues --   -0.59137  -0.59109
 Alpha virt. eigenvalues --   -0.16788  -0.11567  -0.09794  -0.09215  -0.09215
 Alpha virt. eigenvalues --   -0.07958  -0.07958  -0.06180  -0.02747  -0.02747
 Alpha virt. eigenvalues --   -0.01724  -0.01724  -0.00055   0.07084   0.07084
 Alpha virt. eigenvalues --    0.13052   0.14323   0.14324   0.21972   0.25258
 Alpha virt. eigenvalues --    0.25259   0.26260   0.26572   0.36547   0.36548
 Alpha virt. eigenvalues --    0.37136   0.38547   0.38547   0.42013   0.42183
 Alpha virt. eigenvalues --    0.43956   0.43956   0.44440   0.47876   0.47878
 Alpha virt. eigenvalues --    0.49400   0.71584   0.71585   0.79447   0.79448
 Alpha virt. eigenvalues --    0.96670   1.00014   1.00014   1.14407   1.17845
 Alpha virt. eigenvalues --    1.21273   1.21274   1.23082   1.23082   1.24487
 Alpha virt. eigenvalues --    1.27061   1.27062   1.29029   1.29844   1.29845
 Alpha virt. eigenvalues --    1.32615   1.43991   1.43992   1.44829   1.50945
 Alpha virt. eigenvalues --    1.54724   1.54725   1.56261   1.56261   1.60974
 Alpha virt. eigenvalues --    1.64307   1.74929   1.74929   1.84739   1.87722
 Alpha virt. eigenvalues --    1.87723   1.89309   1.89309   1.94356   1.96911
 Alpha virt. eigenvalues --    2.09307   2.09307   2.15169   2.16464   2.23431
 Alpha virt. eigenvalues --    2.23432   2.27319   2.27319   2.28952   2.32993
 Alpha virt. eigenvalues --    2.34934   2.34934   2.39464   2.39465   2.42770
 Alpha virt. eigenvalues --    2.42770   2.47770   2.48186   2.59008   2.59008
 Alpha virt. eigenvalues --    2.66786   2.79831   2.79831   2.95371   3.14337
 Alpha virt. eigenvalues --    3.14339   3.39287   3.56092   3.57601   3.57601
 Alpha virt. eigenvalues --    3.59617   3.59617   3.61064   4.51170   4.51990
 Alpha virt. eigenvalues --    4.51990  23.65033  23.68849  23.68849  35.23483
          Condensed to atoms (all electrons):
               1          2          3          4          5          6
     1  C    4.891540   0.400181   0.400172   0.408874  -0.064454  -0.004429
     2  H    0.400181   0.473749  -0.016255  -0.018420   0.005731   0.000101
     3  H    0.400172  -0.016255   0.473741  -0.018411  -0.004431   0.004110
     4  H    0.408874  -0.018420  -0.018411   0.472685  -0.004864  -0.001334
     5  C   -0.064454   0.005731  -0.004431  -0.004864   4.891615   0.400165
     6  H   -0.004429   0.000101   0.004110  -0.001334   0.400165   0.473725
     7  H    0.005731  -0.000367   0.000101   0.000099   0.400180  -0.016250
     8  H   -0.004866   0.000099  -0.001333   0.004935   0.408863  -0.018413
     9  C   -0.064461  -0.004431   0.005731  -0.004862  -0.064459   0.005731
    10  H   -0.004868  -0.001333   0.000099   0.004935  -0.004865   0.000099
    11  H    0.005732   0.000101  -0.000366   0.000099  -0.004432   0.000101
    12  H   -0.004429   0.004110   0.000101  -0.001333   0.005731  -0.000367
    13  N    0.258065  -0.018118  -0.018107  -0.026054   0.258145  -0.018108
    14  H   -0.028031  -0.003770  -0.003771   0.005198  -0.028040  -0.003772
               7          8          9         10         11         12
     1  C    0.005731  -0.004866  -0.064461  -0.004868   0.005732  -0.004429
     2  H   -0.000367   0.000099  -0.004431  -0.001333   0.000101   0.004110
     3  H    0.000101  -0.001333   0.005731   0.000099  -0.000366   0.000101
     4  H    0.000099   0.004935  -0.004862   0.004935   0.000099  -0.001333
     5  C    0.400180   0.408863  -0.064459  -0.004865  -0.004432   0.005731
     6  H   -0.016250  -0.018413   0.005731   0.000099   0.000101  -0.000367
     7  H    0.473710  -0.018414  -0.004430  -0.001334   0.004111   0.000101
     8  H   -0.018414   0.472664  -0.004866   0.004933  -0.001333   0.000099
     9  C   -0.004430  -0.004866   4.891440   0.408869   0.400186   0.400183
    10  H   -0.001334   0.004933   0.408869   0.472712  -0.018415  -0.018415
    11  H    0.004111  -0.001333   0.400186  -0.018415   0.473760  -0.016262
    12  H    0.000101   0.000099   0.400183  -0.018415  -0.016262   0.473756
    13  N   -0.018115  -0.026061   0.258099  -0.026046  -0.018112  -0.018113
    14  H   -0.003772   0.005198  -0.028039   0.005198  -0.003772  -0.003771
              13         14
     1  C    0.258065  -0.028031
     2  H   -0.018118  -0.003770
     3  H   -0.018107  -0.003771
     4  H   -0.026054   0.005198
     5  C    0.258145  -0.028040
     6  H   -0.018108  -0.003772
     7  H   -0.018115  -0.003772
     8  H   -0.026061   0.005198
     9  C    0.258099  -0.028039
    10  H   -0.026046   0.005198
    11  H   -0.018112  -0.003772
    12  H   -0.018113  -0.003771
    13  N    6.384209   0.348892
    14  H    0.348892   0.444463
 Mulliken charges:
               1
     1  C   -0.194755
     2  H    0.178622
     3  H    0.178619
     4  H    0.178456
     5  C   -0.194885
     6  H    0.178639
     7  H    0.178648
     8  H    0.178494
     9  C   -0.194692
    10  H    0.178430
    11  H    0.178602
    12  H    0.178609
    13  N   -0.320576
    14  H    0.297789
 Sum of Mulliken charges =   1.00000
 Mulliken charges with hydrogens summed into heavy atoms:
               1
     1  C    0.340942
     5  C    0.340896
     9  C    0.340949
    13  N   -0.022787
 Electronic spatial extent (au):  <R**2>=            319.1555
 Charge=              1.0000 electrons
 Dipole moment (field-independent basis, Debye):
    X=              0.6722    Y=              0.4326    Z=              0.2892  Tot=              0.8501
 Quadrupole moment (field-independent basis, Debye-Ang):
   XX=            -20.9246   YY=            -20.1994   ZZ=            -19.9156
   XY=             -0.7965   XZ=             -0.5324   YZ=             -0.3425
 Traceless Quadrupole moment (field-independent basis, Debye-Ang):
   XX=             -0.5780   YY=              0.1471   ZZ=              0.4309
   XY=             -0.7965   XZ=             -0.5324   YZ=             -0.3425
 Octapole moment (field-independent basis, Debye-Ang**2):
  XXX=              2.4047  YYY=              2.1858  ZZZ=              2.5065  XYY=              0.6868
  XXY=             -0.2664  XXZ=             -0.2314  XZZ=              0.3370  YZZ=              0.2865
  YYZ=             -0.7996  XYZ=              0.5730
 Hexadecapole moment (field-independent basis, Debye-Ang**3):
 XXXX=            -93.4596 YYYY=           -134.2033 ZZZZ=           -149.1755 XXXY=             25.4513
 XXXZ=             17.2105 YYYX=             19.4516 YYYZ=             11.0013 ZZZX=             11.5912
 ZZZY=              7.3470 XXYY=            -34.5778 XXZZ=            -38.0521 YYZZ=            -44.4806
 XXYZ=              3.9328 YYXZ=              5.8228 ZZXY=              6.9056
 N-N= 1.469674036869D+02 E-N=-6.911358203126D+02  KE= 1.741430083762D+02
 Calling FoFJK, ICntrl=      2127 FMM=F ISym2X=0 I1Cent= 0 IOpClX= 0 NMat=1 NMatS=1 NMatT=0.
 ***** Axes restored to original set *****
 -------------------------------------------------------------------
 Center     Atomic                   Forces (Hartrees/Bohr)
 Number     Number              X              Y              Z
 -------------------------------------------------------------------
      1        6           0.006638353   -0.003307375    0.004613479
      2        1           0.000674656    0.000965787    0.001440729
      3        1           0.001600155    0.000985837    0.000126062
      4        1          -0.000867501    0.000273531   -0.000623334
      5        6           0.004404512   -0.007311644   -0.001742496
      6        1           0.000999912   -0.000116946   -0.001615035
      7        1          -0.000385385   -0.000965394   -0.001592992
      8        1          -0.000531232    0.000863146    0.000350143
      9        6          -0.000096477   -0.007262812    0.004680322
     10        1           0.000140140    0.000837105   -0.000606903
     11        1          -0.001600924   -0.000959062    0.000203490
     12        1          -0.001150241   -0.000127603    0.001462841
     13        7          -0.019063578    0.031353197   -0.013137004
     14        1           0.009237609   -0.015227766    0.006440697
 -------------------------------------------------------------------
 Cartesian Forces:  Max     0.031353197 RMS     0.007120200

 GradGradGradGradGradGradGradGradGradGradGradGradGradGradGradGradGradGrad
 Berny optimization.
 FormGI is forming the generalized inverse of G from B-inverse, IUseBI=4.
 Internal  Forces:  Max     0.018939394 RMS     0.003034742
 Search for a local minimum.
 Step number   1 out of a maximum of   74
 All quantities printed in internal units (Hartrees-Bohrs-Radians)
 Mixed Optimization -- RFO/linear search
 Second derivative matrix not updated -- first step.
 ITU=  0
     Eigenvalues ---    0.00344   0.00344   0.00344   0.04009   0.04686
     Eigenvalues ---    0.04686   0.05943   0.05943   0.05943   0.05943
     Eigenvalues ---    0.05943   0.05943   0.16000   0.16000   0.16000
     Eigenvalues ---    0.16000   0.16000   0.16000   0.16000   0.16000
     Eigenvalues ---    0.16000   0.16107   0.16107   0.32184   0.32184
     Eigenvalues ---    0.32184   0.35203   0.35203   0.35203   0.35203
     Eigenvalues ---    0.35203   0.35203   0.35203   0.35203   0.35203
     Eigenvalues ---    0.47688
 RFO step:  Lambda=-3.93493007D-03 EMin= 3.44469829D-03
 Linear search not attempted -- first point.
 Iteration  1 RMS(Cart)=  0.03583676 RMS(Int)=  0.00095448
 Iteration  2 RMS(Cart)=  0.00099993 RMS(Int)=  0.00077477
 Iteration  3 RMS(Cart)=  0.00000008 RMS(Int)=  0.00077477
 Variable       Old X    -DE/DX   Delta X   Delta X   Delta X     New X
                                 (Linear)    (Quad)   (Total)
    R1        2.05347   0.00144   0.00000   0.00405   0.00405   2.05752
    R2        2.05347   0.00146   0.00000   0.00410   0.00410   2.05757
    R3        2.05347   0.00086   0.00000   0.00242   0.00242   2.05589
    R4        2.83809   0.00457   0.00000   0.01402   0.01402   2.85211
    R5        2.05347   0.00147   0.00000   0.00413   0.00413   2.05760
    R6        2.05347   0.00147   0.00000   0.00412   0.00412   2.05759
    R7        2.05347   0.00085   0.00000   0.00238   0.00238   2.05585
    R8        2.83809   0.00467   0.00000   0.01433   0.01433   2.85242
    R9        2.05347   0.00082   0.00000   0.00230   0.00230   2.05577
   R10        2.05347   0.00145   0.00000   0.00407   0.00407   2.05754
   R11        2.05347   0.00144   0.00000   0.00403   0.00403   2.05750
   R12        2.83809   0.00459   0.00000   0.01410   0.01410   2.85219
   R13        1.88973   0.01894   0.00000   0.03939   0.03939   1.92912
    A1        1.92489  -0.00128   0.00000  -0.00502  -0.00512   1.91977
    A2        1.92489  -0.00021   0.00000  -0.00264  -0.00261   1.92229
    A3        1.89615   0.00168   0.00000   0.01092   0.01088   1.90703
    A4        1.92490  -0.00023   0.00000  -0.00282  -0.00279   1.92211
    A5        1.89615   0.00170   0.00000   0.01106   0.01103   1.90717
    A6        1.89615  -0.00161   0.00000  -0.01116  -0.01113   1.88502
    A7        1.92490  -0.00131   0.00000  -0.00514  -0.00525   1.91964
    A8        1.92489  -0.00024   0.00000  -0.00286  -0.00283   1.92206
    A9        1.89615   0.00172   0.00000   0.01121   0.01118   1.90732
   A10        1.92489  -0.00024   0.00000  -0.00292  -0.00288   1.92201
   A11        1.89615   0.00172   0.00000   0.01120   0.01116   1.90730
   A12        1.89615  -0.00160   0.00000  -0.01113  -0.01110   1.88505
   A13        1.92489  -0.00024   0.00000  -0.00281  -0.00278   1.92211
   A14        1.92489  -0.00023   0.00000  -0.00274  -0.00270   1.92219
   A15        1.89615  -0.00155   0.00000  -0.01076  -0.01073   1.88542
   A16        1.92489  -0.00130   0.00000  -0.00525  -0.00535   1.91954
   A17        1.89615   0.00169   0.00000   0.01096   0.01092   1.90707
   A18        1.89615   0.00169   0.00000   0.01095   0.01091   1.90706
   A19        1.91063   0.00188   0.00000   0.04330   0.04015   1.95079
   A20        1.91063   0.00194   0.00000   0.04366   0.04053   1.95116
   A21        1.91063  -0.00191   0.00000  -0.04351  -0.04234   1.86830
   A22        1.91063   0.00192   0.00000   0.04355   0.04041   1.95104
   A23        1.91063  -0.00191   0.00000  -0.04347  -0.04230   1.86834
   A24        1.91063  -0.00193   0.00000  -0.04353  -0.04236   1.86828
    D1        3.14155   0.00214   0.00000   0.04996   0.05043  -3.09120
    D2        1.04716  -0.00256   0.00000  -0.05663  -0.05717   0.98999
    D3       -1.04724  -0.00022   0.00000  -0.00340  -0.00344  -1.05068
    D4       -1.04724   0.00257   0.00000   0.05675   0.05730  -0.98994
    D5        3.14155  -0.00213   0.00000  -0.04983  -0.05030   3.09125
    D6        1.04716   0.00021   0.00000   0.00339   0.00343   1.05059
    D7        1.04716   0.00235   0.00000   0.05329   0.05379   1.10095
    D8       -1.04724  -0.00235   0.00000  -0.05330  -0.05381  -1.10104
    D9        3.14155  -0.00001   0.00000  -0.00007  -0.00007   3.14148
   D10        1.04721  -0.00258   0.00000  -0.05756  -0.05810   0.98911
   D11       -3.14158   0.00213   0.00000   0.04909   0.04956  -3.09202
   D12       -1.04718  -0.00022   0.00000  -0.00417  -0.00421  -1.05139
   D13       -3.14158  -0.00214   0.00000  -0.05067  -0.05114   3.09047
   D14       -1.04718   0.00257   0.00000   0.05598   0.05653  -0.99066
   D15        1.04721   0.00022   0.00000   0.00272   0.00275   1.04997
   D16       -1.04718  -0.00236   0.00000  -0.05415  -0.05466  -1.10184
   D17        1.04721   0.00234   0.00000   0.05250   0.05301   1.10022
   D18       -3.14158  -0.00001   0.00000  -0.00076  -0.00077   3.14084
   D19        1.04722   0.00234   0.00000   0.05411   0.05463   1.10185
   D20       -1.04718  -0.00233   0.00000  -0.05232  -0.05283  -1.10001
   D21       -3.14157   0.00001   0.00000   0.00090   0.00090  -3.14067
   D22       -3.14157   0.00214   0.00000   0.05084   0.05131  -3.09026
   D23        1.04722  -0.00254   0.00000  -0.05560  -0.05615   0.99107
   D24       -1.04718  -0.00020   0.00000  -0.00237  -0.00241  -1.04959
   D25       -1.04718   0.00255   0.00000   0.05731   0.05786  -0.98932
   D26       -3.14157  -0.00213   0.00000  -0.04913  -0.04960   3.09201
   D27        1.04722   0.00021   0.00000   0.00410   0.00413   1.05135
         Item               Value     Threshold  Converged?
 Maximum Force            0.018939     0.000450     NO 
 RMS     Force            0.003035     0.000300     NO 
 Maximum Displacement     0.108270     0.001800     NO 
 RMS     Displacement     0.035039     0.001200     NO 
 Predicted change in Energy=-2.215862D-03
 GradGradGradGradGradGradGradGradGradGradGradGradGradGradGradGradGradGrad

                          Input orientation:                          
 ---------------------------------------------------------------------
 Center     Atomic      Atomic             Coordinates (Angstroms)
 Number     Number       Type             X           Y           Z
 ---------------------------------------------------------------------
      1          6           0        0.018655    0.014849    0.012900
      2          1           0        0.021331    0.000515    1.101596
      3          1           0        1.040739    0.000395   -0.362144
      4          1           0       -0.500373    0.899943   -0.348778
      5          6           0       -0.694697   -1.272943   -2.006751
      6          1           0        0.338048   -1.267211   -2.351665
      7          1           0       -1.189785   -2.187443   -2.329444
      8          1           0       -1.223440   -0.404498   -2.393767
      9          6           0       -2.123246   -1.273025    0.044292
     10          1           0       -2.669956   -0.404850   -0.317425
     11          1           0       -2.597147   -2.187769   -0.308059
     12          1           0       -2.088489   -1.267344    1.132506
     13          7           0       -0.717146   -1.199304   -0.499281
     14          1           0       -0.218732   -2.019779   -0.152109
 ---------------------------------------------------------------------
                    Distance matrix (angstroms):
                    1          2          3          4          5
     1  C    0.000000
     2  H    1.088794   0.000000
     3  H    1.088817   1.783740   0.000000
     4  H    1.087930   1.784582   1.784487   0.000000
     5  C    2.499254   3.434562   2.708849   2.740086   0.000000
     6  H    2.708663   3.692215   2.461462   3.067745   1.088834
     7  H    3.434675   4.245704   3.692173   3.732329   1.088831
     8  H    2.740565   3.732433   3.068866   2.531081   1.087910
     9  C    2.499468   2.709060   3.434761   2.740439   2.499506
    10  H    2.741147   3.069359   3.733025   2.531908   2.740266
    11  H    3.434671   3.692173   4.245610   3.732571   2.709572
    12  H    2.708799   2.461658   3.692317   3.068134   3.434767
    13  N    1.509271   2.132539   2.132661   2.115770   1.509435
    14  H    2.055065   2.389769   2.389871   2.939860   2.055238
                    6          7          8          9         10
     6  H    0.000000
     7  H    1.783702   0.000000
     8  H    1.784459   1.784423   0.000000
     9  C    3.434910   2.709637   2.740095   0.000000
    10  H    3.732276   3.068675   2.530534   1.087869   0.000000
    11  H    3.693119   2.463061   3.068763   1.088802   1.784429
    12  H    4.245884   3.693150   3.731945   1.088784   1.784461
    13  N    2.132926   2.132910   2.115923   1.509312   2.116057
    14  H    2.390483   2.389946   2.940000   2.055088   2.940038
                   11         12         13         14
    11  H    0.000000
    12  H    1.783576   0.000000
    13  N    2.132612   2.132590   0.000000
    14  H    2.389435   2.390059   1.020844   0.000000
 Stoichiometry    C3H10N(1+)
 Framework group  C1[X(C3H10N)]
 Deg. of freedom    36
 Full point group                 C1      NOp   1
 Largest Abelian subgroup         C1      NOp   1
 Largest concise Abelian subgroup C1      NOp   1
                         Standard orientation:                         
 ---------------------------------------------------------------------
 Center     Atomic      Atomic             Coordinates (Angstroms)
 Number     Number       Type             X           Y           Z
 ---------------------------------------------------------------------
      1          6           0       -0.572327   -1.324634   -0.102748
      2          1           0        0.050790   -2.131186    0.280230
      3          1           0       -1.586669   -1.423757    0.280408
      4          1           0       -0.579728   -1.341215   -1.190526
      5          6           0       -0.861193    1.157870   -0.102672
      6          1           0       -1.871470    1.021173    0.279708
      7          1           0       -0.440479    2.086000    0.280900
      8          1           0       -0.871499    1.172993   -1.190428
      9          6           0        1.433423    0.166777   -0.102779
     10          1           0        1.451756    0.169954   -1.190489
     11          1           0        1.820600    1.109171    0.281250
     12          1           0        2.026321   -0.662500    0.279612
     13          7           0        0.000111   -0.000080    0.339711
     14          1           0        0.000184   -0.000146    1.360555
 ---------------------------------------------------------------------
 Rotational constants (GHZ):      8.0139250      8.0121928      4.6405745
 Standard basis: 6-311G(d,p) (5D, 7F)
 There are   136 symmetry adapted cartesian basis functions of A   symmetry.
 There are   132 symmetry adapted basis functions of A   symmetry.
   132 basis functions,   208 primitive gaussians,   136 cartesian basis functions
    17 alpha electrons       17 beta electrons
       nuclear repulsion energy       145.6893389718 Hartrees.
 NAtoms=   14 NActive=   14 NUniq=   14 SFac= 1.00D+00 NAtFMM=   60 NAOKFM=F Big=F
 Integral buffers will be    131072 words long.
 Raffenetti 2 integral format.
 Two-electron integral symmetry is turned on.
 One-electron integrals computed using PRISM.
 NBasis=   132 RedAO= T EigKep=  5.00D-03  NBF=   132
 NBsUse=   132 1.00D-06 EigRej= -1.00D+00 NBFU=   132
 Initial guess from the checkpoint file:  "/work/js4811/cations/NMe3H_plus/NMe3H_plus.chk"
 B after Tr=     0.000000    0.000000    0.000000
         Rot=    0.601775    0.098896    0.565799    0.554940 Ang= 106.01 deg.
 ExpMin= 1.03D-01 ExpMax= 6.29D+03 ExpMxC= 9.49D+02 IAcc=1 IRadAn=         1 AccDes= 0.00D+00
 Harris functional with IExCor=  402 and IRadAn=       1 diagonalized for initial guess.
 HarFok:  IExCor=  402 AccDes= 0.00D+00 IRadAn=         1 IDoV= 1 UseB2=F ITyADJ=14
 ICtDFT=  3500011 ScaDFX=  1.000000  1.000000  1.000000  1.000000
 FoFCou: FMM=F IPFlag=           0 FMFlag=      100000 FMFlg1=           0
         NFxFlg=           0 DoJE=T BraDBF=F KetDBF=T FulRan=T
         wScrn=  0.000000 ICntrl=     500 IOpCl=  0 I1Cent=   200000004 NGrid=           0
         NMat0=    1 NMatS0=      1 NMatT0=    0 NMatD0=    1 NMtDS0=    0 NMtDT0=    0
 Petite list used in FoFCou.
 Requested convergence on RMS density matrix=1.00D-08 within 128 cycles.
 Requested convergence on MAX density matrix=1.00D-06.
 Requested convergence on             energy=1.00D-06.
 No special actions if energy rises.
 Integral accuracy reduced to 1.0D-05 until final iterations.
 Initial convergence to 1.0D-05 achieved.  Increase integral accuracy.
 SCF Done:  E(RB3LYP) =  -174.900726665     A.U. after   10 cycles
            NFock= 10  Conv=0.26D-08     -V/T= 2.0050
 Calling FoFJK, ICntrl=      2127 FMM=F ISym2X=0 I1Cent= 0 IOpClX= 0 NMat=1 NMatS=1 NMatT=0.
 ***** Axes restored to original set *****
 -------------------------------------------------------------------
 Center     Atomic                   Forces (Hartrees/Bohr)
 Number     Number              X              Y              Z
 -------------------------------------------------------------------
      1        6          -0.000832515   -0.000417073   -0.000572793
      2        1          -0.000558221   -0.000660944   -0.000186848
      3        1          -0.000360296   -0.000664770   -0.000442013
      4        1          -0.000003077    0.000803698    0.000012939
      5        6          -0.000294115    0.000481347    0.000899859
      6        1           0.000074197    0.000181195    0.000918052
      7        1          -0.000208055    0.000000102    0.000927520
      8        1          -0.000249090    0.000379883   -0.000670875
      9        6           0.000781738    0.000430262   -0.000582862
     10        1          -0.000738352    0.000413709    0.000007461
     11        1           0.000773982    0.000020753   -0.000523023
     12        1           0.000895439    0.000205984   -0.000194211
     13        7          -0.000131187    0.000226151   -0.000180124
     14        1           0.000849551   -0.001400296    0.000586917
 -------------------------------------------------------------------
 Cartesian Forces:  Max     0.001400296 RMS     0.000571047

 GradGradGradGradGradGradGradGradGradGradGradGradGradGradGradGradGradGrad
 Berny optimization.
 Using GEDIIS/GDIIS optimizer.
 FormGI is forming the generalized inverse of G from B-inverse, IUseBI=4.
 Internal  Forces:  Max     0.002132953 RMS     0.000734451
 Search for a local minimum.
 Step number   2 out of a maximum of   74
 All quantities printed in internal units (Hartrees-Bohrs-Radians)
 Mixed Optimization -- En-DIIS/RFO-DIIS
 Update second derivatives using D2CorX and points    1    2
 DE= -1.76D-03 DEPred=-2.22D-03 R= 7.93D-01
 TightC=F SS=  1.41D+00  RLast= 2.57D-01 DXNew= 5.0454D-01 7.7098D-01
 Trust test= 7.93D-01 RLast= 2.57D-01 DXMaxT set to 5.05D-01
 ITU=  1  0
 Use linear search instead of GDIIS.
     Eigenvalues ---    0.00344   0.00344   0.00344   0.04000   0.04863
     Eigenvalues ---    0.04865   0.05836   0.05838   0.05904   0.05967
     Eigenvalues ---    0.05969   0.05970   0.16000   0.16000   0.16000
     Eigenvalues ---    0.16000   0.16000   0.16000   0.16000   0.16000
     Eigenvalues ---    0.17195   0.17200   0.17279   0.32184   0.32184
     Eigenvalues ---    0.33634   0.35008   0.35203   0.35203   0.35203
     Eigenvalues ---    0.35203   0.35203   0.35203   0.35203   0.35429
     Eigenvalues ---    0.44607
 RFO step:  Lambda=-1.29427285D-04 EMin= 3.44469663D-03
 Quartic linear search produced a step of -0.06605.
 Iteration  1 RMS(Cart)=  0.00648448 RMS(Int)=  0.00005718
 Iteration  2 RMS(Cart)=  0.00002714 RMS(Int)=  0.00005098
 Iteration  3 RMS(Cart)=  0.00000000 RMS(Int)=  0.00005098
 Variable       Old X    -DE/DX   Delta X   Delta X   Delta X     New X
                                 (Linear)    (Quad)   (Total)
    R1        2.05752  -0.00018  -0.00027  -0.00009  -0.00036   2.05716
    R2        2.05757  -0.00018  -0.00027  -0.00009  -0.00036   2.05721
    R3        2.05589   0.00065  -0.00016   0.00194   0.00178   2.05767
    R4        2.85211  -0.00202  -0.00093  -0.00455  -0.00548   2.84663
    R5        2.05760  -0.00022  -0.00027  -0.00019  -0.00046   2.05713
    R6        2.05759  -0.00018  -0.00027  -0.00010  -0.00037   2.05722
    R7        2.05585   0.00066  -0.00016   0.00198   0.00182   2.05768
    R8        2.85242  -0.00213  -0.00095  -0.00486  -0.00580   2.84661
    R9        2.05577   0.00070  -0.00015   0.00208   0.00193   2.05770
   R10        2.05754  -0.00018  -0.00027  -0.00011  -0.00038   2.05716
   R11        2.05750  -0.00017  -0.00027  -0.00007  -0.00034   2.05717
   R12        2.85219  -0.00211  -0.00093  -0.00481  -0.00574   2.84644
   R13        1.92912   0.00174  -0.00260   0.00708   0.00448   1.93360
    A1        1.91977   0.00097   0.00034   0.00328   0.00358   1.92335
    A2        1.92229   0.00014   0.00017   0.00148   0.00167   1.92396
    A3        1.90703  -0.00122  -0.00072  -0.00663  -0.00736   1.89967
    A4        1.92211   0.00015   0.00018   0.00169   0.00189   1.92399
    A5        1.90717  -0.00119  -0.00073  -0.00639  -0.00713   1.90004
    A6        1.88502   0.00112   0.00074   0.00646   0.00720   1.89222
    A7        1.91964   0.00104   0.00035   0.00367   0.00398   1.92362
    A8        1.92206   0.00017   0.00019   0.00178   0.00198   1.92404
    A9        1.90732  -0.00126  -0.00074  -0.00680  -0.00755   1.89978
   A10        1.92201   0.00018   0.00019   0.00169   0.00189   1.92390
   A11        1.90730  -0.00129  -0.00074  -0.00699  -0.00774   1.89956
   A12        1.88505   0.00113   0.00073   0.00652   0.00726   1.89231
   A13        1.92211   0.00016   0.00018   0.00155   0.00175   1.92386
   A14        1.92219   0.00016   0.00018   0.00157   0.00176   1.92395
   A15        1.88542   0.00113   0.00071   0.00648   0.00720   1.89262
   A16        1.91954   0.00104   0.00035   0.00385   0.00416   1.92371
   A17        1.90707  -0.00125  -0.00072  -0.00675  -0.00749   1.89959
   A18        1.90706  -0.00127  -0.00072  -0.00684  -0.00757   1.89949
   A19        1.95079   0.00003  -0.00265   0.00293   0.00048   1.95127
   A20        1.95116  -0.00008  -0.00268   0.00236  -0.00012   1.95104
   A21        1.86830   0.00005   0.00280  -0.00265   0.00008   1.86837
   A22        1.95104  -0.00009  -0.00267   0.00224  -0.00023   1.95082
   A23        1.86834   0.00004   0.00279  -0.00284  -0.00012   1.86821
   A24        1.86828   0.00007   0.00280  -0.00283  -0.00011   1.86817
    D1       -3.09120   0.00005  -0.00333   0.00479   0.00141  -3.08979
    D2        0.98999   0.00021   0.00378  -0.00236   0.00143   0.99142
    D3       -1.05068   0.00014   0.00023   0.00136   0.00158  -1.04910
    D4       -0.98994  -0.00023  -0.00378   0.00085  -0.00296  -0.99290
    D5        3.09125  -0.00007   0.00332  -0.00631  -0.00294   3.08831
    D6        1.05059  -0.00014  -0.00023  -0.00258  -0.00279   1.04779
    D7        1.10095  -0.00008  -0.00355   0.00301  -0.00057   1.10038
    D8       -1.10104   0.00008   0.00355  -0.00414  -0.00056  -1.10160
    D9        3.14148   0.00001   0.00000  -0.00042  -0.00041   3.14107
   D10        0.98911   0.00023   0.00384  -0.00088   0.00297   0.99208
   D11       -3.09202   0.00008  -0.00327   0.00634   0.00302  -3.08900
   D12       -1.05139   0.00014   0.00028   0.00243   0.00269  -1.04870
   D13        3.09047  -0.00006   0.00338  -0.00481  -0.00139   3.08909
   D14       -0.99066  -0.00021  -0.00373   0.00241  -0.00134  -0.99200
   D15        1.04997  -0.00015  -0.00018  -0.00150  -0.00167   1.04830
   D16       -1.10184   0.00008   0.00361  -0.00296   0.00068  -1.10116
   D17        1.10022  -0.00007  -0.00350   0.00426   0.00073   1.10095
   D18        3.14084  -0.00001   0.00005   0.00035   0.00040   3.14124
   D19        1.10185  -0.00006  -0.00361   0.00220  -0.00144   1.10040
   D20       -1.10001   0.00004   0.00349  -0.00534  -0.00181  -1.10182
   D21       -3.14067   0.00000  -0.00006  -0.00142  -0.00148   3.14104
   D22       -3.09026   0.00008  -0.00339   0.00400   0.00056  -3.08969
   D23        0.99107   0.00017   0.00371  -0.00353   0.00019   0.99127
   D24       -1.04959   0.00013   0.00016   0.00038   0.00053  -1.04906
   D25       -0.98932  -0.00019  -0.00382   0.00042  -0.00342  -0.99274
   D26        3.09201  -0.00009   0.00328  -0.00712  -0.00379   3.08822
   D27        1.05135  -0.00013  -0.00027  -0.00320  -0.00346   1.04789
         Item               Value     Threshold  Converged?
 Maximum Force            0.002133     0.000450     NO 
 RMS     Force            0.000734     0.000300     NO 
 Maximum Displacement     0.019789     0.001800     NO 
 RMS     Displacement     0.006497     0.001200     NO 
 Predicted change in Energy=-7.309866D-05
 GradGradGradGradGradGradGradGradGradGradGradGradGradGradGradGradGradGrad

                          Input orientation:                          
 ---------------------------------------------------------------------
 Center     Atomic      Atomic             Coordinates (Angstroms)
 Number     Number       Type             X           Y           Z
 ---------------------------------------------------------------------
      1          6           0        0.015646    0.015190    0.010896
      2          1           0        0.015434   -0.006885    1.099277
      3          1           0        1.036947   -0.007184   -0.365336
      4          1           0       -0.498464    0.905503   -0.347826
      5          6           0       -0.696387   -1.270677   -2.004833
      6          1           0        0.338670   -1.267424   -2.341983
      7          1           0       -1.191462   -2.187923   -2.318973
      8          1           0       -1.223907   -0.403814   -2.399701
      9          6           0       -2.121670   -1.270579    0.042084
     10          1           0       -2.674996   -0.403342   -0.314857
     11          1           0       -2.588347   -2.187428   -0.313798
     12          1           0       -2.078464   -1.268049    1.129830
     13          7           0       -0.718435   -1.196755   -0.500446
     14          1           0       -0.218803   -2.019098   -0.152466
 ---------------------------------------------------------------------
                    Distance matrix (angstroms):
                    1          2          3          4          5
     1  C    0.000000
     2  H    1.088605   0.000000
     3  H    1.088626   1.785659   0.000000
     4  H    1.088874   1.786239   1.786278   0.000000
     5  C    2.494717   3.426275   2.699780   2.742373   0.000000
     6  H    2.699164   3.679091   2.446002   3.065790   1.088588
     7  H    3.426238   4.230598   3.679419   3.732955   1.088634
     8  H    2.742815   3.733144   3.067151   2.539837   1.088875
     9  C    2.494452   2.698479   3.426224   2.742655   2.494254
    10  H    2.742415   3.065187   3.733365   2.539971   2.742843
    11  H    3.426038   3.678482   4.230706   3.732960   2.698063
    12  H    2.698891   2.444561   3.678462   3.066626   3.425822
    13  N    1.506372   2.124493   2.124782   2.119238   1.506363
    14  H    2.054260   2.381330   2.381180   2.944430   2.054138
                    6          7          8          9         10
     6  H    0.000000
     7  H    1.785820   0.000000
     8  H    1.786281   1.786230   0.000000
     9  C    3.425939   2.698407   2.742184   0.000000
    10  H    3.733372   3.066282   2.540125   1.088888   0.000000
    11  H    3.677958   2.443770   3.064958   1.088602   1.786190
    12  H    4.230369   3.677932   3.732929   1.088606   1.786250
    13  N    2.124552   2.124431   2.119298   1.506273   2.119453
    14  H    2.381129   2.380823   2.944392   2.054028   2.944474
                   11         12         13         14
    11  H    0.000000
    12  H    1.785862   0.000000
    13  N    2.124345   2.124279   0.000000
    14  H    2.380988   2.380482   1.023216   0.000000
 Stoichiometry    C3H10N(1+)
 Framework group  C1[X(C3H10N)]
 Deg. of freedom    36
 Full point group                 C1      NOp   1
 Largest Abelian subgroup         C1      NOp   1
 Largest concise Abelian subgroup C1      NOp   1
                         Standard orientation:                         
 ---------------------------------------------------------------------
 Center     Atomic      Atomic             Coordinates (Angstroms)
 Number     Number       Type             X           Y           Z
 ---------------------------------------------------------------------
      1          6           0       -1.386700    0.389267   -0.103438
      2          1           0       -2.096605   -0.339224    0.284371
      3          1           0       -1.614743    1.380191    0.285371
      4          1           0       -1.411661    0.396868   -1.192000
      5          6           0        1.030569    1.006050   -0.103416
      6          1           0        0.755283    1.985092    0.284810
      7          1           0        2.002576    0.707042    0.285068
      8          1           0        1.049486    1.024182   -1.191976
      9          6           0        0.356173   -1.395302   -0.103402
     10          1           0        0.362093   -1.421167   -1.191967
     11          1           0        1.342026   -1.645762    0.284435
     12          1           0       -0.388268   -2.087783    0.285623
     13          7           0       -0.000068    0.000066    0.338073
     14          1           0        0.000036    0.000005    1.361289
 ---------------------------------------------------------------------
 Rotational constants (GHZ):      8.0413910      8.0384394      4.6601849
 Standard basis: 6-311G(d,p) (5D, 7F)
 There are   136 symmetry adapted cartesian basis functions of A   symmetry.
 There are   132 symmetry adapted basis functions of A   symmetry.
   132 basis functions,   208 primitive gaussians,   136 cartesian basis functions
    17 alpha electrons       17 beta electrons
       nuclear repulsion energy       145.8882574166 Hartrees.
 NAtoms=   14 NActive=   14 NUniq=   14 SFac= 1.00D+00 NAtFMM=   60 NAOKFM=F Big=F
 Integral buffers will be    131072 words long.
 Raffenetti 2 integral format.
 Two-electron integral symmetry is turned on.
 One-electron integrals computed using PRISM.
 NBasis=   132 RedAO= T EigKep=  4.98D-03  NBF=   132
 NBsUse=   132 1.00D-06 EigRej= -1.00D+00 NBFU=   132
 Initial guess from the checkpoint file:  "/work/js4811/cations/NMe3H_plus/NMe3H_plus.chk"
 B after Tr=     0.000000    0.000000    0.000000
         Rot=    0.752881    0.000047   -0.000046    0.658156 Ang=  82.32 deg.
 Requested convergence on RMS density matrix=1.00D-08 within 128 cycles.
 Requested convergence on MAX density matrix=1.00D-06.
 Requested convergence on             energy=1.00D-06.
 No special actions if energy rises.
 SCF Done:  E(RB3LYP) =  -174.900808878     A.U. after    8 cycles
            NFock=  8  Conv=0.19D-08     -V/T= 2.0049
 Calling FoFJK, ICntrl=      2127 FMM=F ISym2X=0 I1Cent= 0 IOpClX= 0 NMat=1 NMatS=1 NMatT=0.
 ***** Axes restored to original set *****
 -------------------------------------------------------------------
 Center     Atomic                   Forces (Hartrees/Bohr)
 Number     Number              X              Y              Z
 -------------------------------------------------------------------
      1        6           0.000044504   -0.000337051    0.000045383
      2        1          -0.000026457    0.000134696   -0.000025372
      3        1          -0.000083470    0.000085948   -0.000037456
      4        1           0.000040411   -0.000029405    0.000044547
      5        6           0.000112841   -0.000200162    0.000313790
      6        1          -0.000059162    0.000065197   -0.000112506
      7        1           0.000012357    0.000105961   -0.000118420
      8        1           0.000021316   -0.000032037   -0.000007654
      9        6           0.000272255   -0.000216615    0.000073438
     10        1           0.000029104   -0.000047948    0.000033565
     11        1          -0.000096017    0.000093947    0.000016398
     12        1          -0.000149921    0.000065171   -0.000026513
     13        7          -0.000031228    0.000146185   -0.000142299
     14        1          -0.000086534    0.000166113   -0.000056901
 -------------------------------------------------------------------
 Cartesian Forces:  Max     0.000337051 RMS     0.000120845

 GradGradGradGradGradGradGradGradGradGradGradGradGradGradGradGradGradGrad
 Berny optimization.
 Using GEDIIS/GDIIS optimizer.
 FormGI is forming the generalized inverse of G from B-inverse, IUseBI=4.
 Internal  Forces:  Max     0.000204918 RMS     0.000073372
 Search for a local minimum.
 Step number   3 out of a maximum of   74
 All quantities printed in internal units (Hartrees-Bohrs-Radians)
 Mixed Optimization -- En-DIIS/RFO-DIIS
 Swapping is turned off.
 Update second derivatives using D2CorX and points    1    2    3
 DE= -8.22D-05 DEPred=-7.31D-05 R= 1.12D+00
 TightC=F SS=  1.41D+00  RLast= 2.82D-02 DXNew= 8.4853D-01 8.4723D-02
 Trust test= 1.12D+00 RLast= 2.82D-02 DXMaxT set to 5.05D-01
 ITU=  1  1  0
     Eigenvalues ---    0.00344   0.00344   0.00345   0.04066   0.04863
     Eigenvalues ---    0.04867   0.05908   0.05909   0.05952   0.05953
     Eigenvalues ---    0.05954   0.06089   0.15864   0.16000   0.16000
     Eigenvalues ---    0.16000   0.16000   0.16000   0.16000   0.16000
     Eigenvalues ---    0.17184   0.17202   0.18626   0.32118   0.32184
     Eigenvalues ---    0.32663   0.35160   0.35187   0.35203   0.35203
     Eigenvalues ---    0.35203   0.35203   0.35203   0.35203   0.35288
     Eigenvalues ---    0.45061
 En-DIIS/RFO-DIIS IScMMF=        0 using points:     3    2
 RFO step:  Lambda=-8.27460503D-07.
 DidBck=F Rises=F RFO-DIIS coefs:    0.92950    0.07050
 Iteration  1 RMS(Cart)=  0.00087349 RMS(Int)=  0.00000104
 Iteration  2 RMS(Cart)=  0.00000074 RMS(Int)=  0.00000078
 Variable       Old X    -DE/DX   Delta X   Delta X   Delta X     New X
                                 (Linear)    (Quad)   (Total)
    R1        2.05716  -0.00003   0.00003  -0.00012  -0.00009   2.05707
    R2        2.05721  -0.00007   0.00003  -0.00021  -0.00018   2.05702
    R3        2.05767  -0.00006  -0.00013  -0.00001  -0.00013   2.05754
    R4        2.84663  -0.00012   0.00039  -0.00083  -0.00045   2.84618
    R5        2.05713  -0.00002   0.00003  -0.00010  -0.00007   2.05706
    R6        2.05722  -0.00006   0.00003  -0.00019  -0.00017   2.05705
    R7        2.05768  -0.00004  -0.00013   0.00005  -0.00008   2.05760
    R8        2.84661  -0.00007   0.00041  -0.00073  -0.00032   2.84630
    R9        2.05770  -0.00006  -0.00014   0.00000  -0.00014   2.05756
   R10        2.05716  -0.00005   0.00003  -0.00016  -0.00013   2.05702
   R11        2.05717  -0.00003   0.00002  -0.00012  -0.00010   2.05707
   R12        2.84644  -0.00001   0.00040  -0.00053  -0.00013   2.84632
   R13        1.93360  -0.00020  -0.00032  -0.00009  -0.00040   1.93320
    A1        1.92335  -0.00002  -0.00025   0.00079   0.00054   1.92389
    A2        1.92396  -0.00010  -0.00012  -0.00065  -0.00076   1.92319
    A3        1.89967   0.00016   0.00052   0.00046   0.00098   1.90064
    A4        1.92399  -0.00006  -0.00013  -0.00056  -0.00070   1.92329
    A5        1.90004   0.00004   0.00050  -0.00029   0.00021   1.90025
    A6        1.89222  -0.00001  -0.00051   0.00026  -0.00025   1.89197
    A7        1.92362  -0.00010  -0.00028   0.00025  -0.00002   1.92360
    A8        1.92404  -0.00009  -0.00014  -0.00068  -0.00082   1.92323
    A9        1.89978   0.00015   0.00053   0.00034   0.00087   1.90064
   A10        1.92390  -0.00009  -0.00013  -0.00058  -0.00072   1.92318
   A11        1.89956   0.00019   0.00055   0.00056   0.00111   1.90067
   A12        1.89231  -0.00004  -0.00051   0.00014  -0.00038   1.89193
   A13        1.92386  -0.00008  -0.00012  -0.00061  -0.00073   1.92313
   A14        1.92395  -0.00010  -0.00012  -0.00077  -0.00090   1.92306
   A15        1.89262  -0.00008  -0.00051  -0.00013  -0.00064   1.89197
   A16        1.92371  -0.00010  -0.00029   0.00045   0.00016   1.92386
   A17        1.89959   0.00015   0.00053   0.00040   0.00093   1.90052
   A18        1.89949   0.00020   0.00053   0.00069   0.00122   1.90072
   A19        1.95127  -0.00003  -0.00003  -0.00017  -0.00021   1.95106
   A20        1.95104  -0.00001   0.00001  -0.00007  -0.00007   1.95098
   A21        1.86837   0.00000  -0.00001  -0.00016  -0.00016   1.86821
   A22        1.95082   0.00005   0.00002   0.00029   0.00031   1.95112
   A23        1.86821   0.00000   0.00001   0.00005   0.00005   1.86827
   A24        1.86817  -0.00001   0.00001   0.00006   0.00007   1.86824
    D1       -3.08979  -0.00002  -0.00010   0.00038   0.00028  -3.08951
    D2        0.99142  -0.00005  -0.00010   0.00018   0.00008   0.99150
    D3       -1.04910  -0.00004  -0.00011   0.00024   0.00013  -1.04897
    D4       -0.99290   0.00007   0.00021   0.00144   0.00164  -0.99125
    D5        3.08831   0.00004   0.00021   0.00124   0.00145   3.08976
    D6        1.04779   0.00005   0.00020   0.00130   0.00150   1.04929
    D7        1.10038   0.00001   0.00004   0.00074   0.00078   1.10116
    D8       -1.10160  -0.00002   0.00004   0.00054   0.00058  -1.10102
    D9        3.14107  -0.00001   0.00003   0.00060   0.00063  -3.14148
   D10        0.99208  -0.00005  -0.00021  -0.00163  -0.00183   0.99025
   D11       -3.08900  -0.00005  -0.00021  -0.00163  -0.00184  -3.09084
   D12       -1.04870  -0.00004  -0.00019  -0.00137  -0.00156  -1.05026
   D13        3.08909   0.00002   0.00010  -0.00079  -0.00069   3.08840
   D14       -0.99200   0.00003   0.00009  -0.00079  -0.00070  -0.99270
   D15        1.04830   0.00004   0.00012  -0.00053  -0.00042   1.04788
   D16       -1.10116  -0.00001  -0.00005  -0.00108  -0.00113  -1.10229
   D17        1.10095   0.00000  -0.00005  -0.00109  -0.00114   1.09981
   D18        3.14124   0.00001  -0.00003  -0.00083  -0.00086   3.14039
   D19        1.10040   0.00000   0.00010   0.00002   0.00012   1.10052
   D20       -1.10182   0.00001   0.00013   0.00008   0.00021  -1.10161
   D21        3.14104  -0.00001   0.00010  -0.00017  -0.00006   3.14097
   D22       -3.08969  -0.00005  -0.00004  -0.00056  -0.00060  -3.09029
   D23        0.99127  -0.00004  -0.00001  -0.00050  -0.00051   0.99075
   D24       -1.04906  -0.00006  -0.00004  -0.00075  -0.00079  -1.04984
   D25       -0.99274   0.00005   0.00024   0.00063   0.00087  -0.99187
   D26        3.08822   0.00006   0.00027   0.00069   0.00096   3.08917
   D27        1.04789   0.00004   0.00024   0.00044   0.00068   1.04858
         Item               Value     Threshold  Converged?
 Maximum Force            0.000205     0.000450     YES
 RMS     Force            0.000073     0.000300     YES
 Maximum Displacement     0.002690     0.001800     NO 
 RMS     Displacement     0.000873     0.001200     YES
 Predicted change in Energy=-1.101640D-06
 GradGradGradGradGradGradGradGradGradGradGradGradGradGradGradGradGradGrad

                          Input orientation:                          
 ---------------------------------------------------------------------
 Center     Atomic      Atomic             Coordinates (Angstroms)
 Number     Number       Type             X           Y           Z
 ---------------------------------------------------------------------
      1          6           0        0.015719    0.014561    0.010931
      2          1           0        0.016163   -0.006627    1.099281
      3          1           0        1.036530   -0.006952   -0.366396
      4          1           0       -0.498808    0.904704   -0.347398
      5          6           0       -0.696003   -1.270949   -2.004507
      6          1           0        0.338766   -1.266001   -2.342397
      7          1           0       -1.190283   -2.188082   -2.319922
      8          1           0       -1.224349   -0.404482   -2.399029
      9          6           0       -2.121532   -1.270716    0.042317
     10          1           0       -2.674181   -0.403311   -0.315040
     11          1           0       -2.589397   -2.186911   -0.313474
     12          1           0       -2.079630   -1.267326    1.130060
     13          7           0       -0.718385   -1.197128   -0.500288
     14          1           0       -0.218847   -2.019247   -0.152269
 ---------------------------------------------------------------------
                    Distance matrix (angstroms):
                    1          2          3          4          5
     1  C    0.000000
     2  H    1.088556   0.000000
     3  H    1.088528   1.785877   0.000000
     4  H    1.088803   1.785665   1.785705   0.000000
     5  C    2.494208   3.426250   2.698660   2.741963   0.000000
     6  H    2.698583   3.679027   2.444720   3.064884   1.088551
     7  H    3.426215   4.231454   3.678625   3.732870   1.088546
     8  H    2.742493   3.733005   3.066137   2.539600   1.088835
     9  C    2.494145   2.699043   3.426003   2.741817   2.494318
    10  H    2.741612   3.065227   3.732173   2.538543   2.742314
    11  H    3.426127   3.679464   4.231118   3.732264   2.698799
    12  H    2.699291   2.445948   3.679454   3.065877   3.426361
    13  N    1.506136   2.124965   2.124658   2.118794   1.506195
    14  H    2.053785   2.381648   2.381418   2.943798   2.053878
                    6          7          8          9         10
     6  H    0.000000
     7  H    1.785702   0.000000
     8  H    1.785708   1.785678   0.000000
     9  C    3.426361   2.699807   2.741435   0.000000
    10  H    3.732595   3.067069   2.538705   1.088814   0.000000
    11  H    3.679503   2.446090   3.064302   1.088530   1.785614
    12  H    4.231620   3.679825   3.732355   1.088555   1.785589
    13  N    2.125012   2.125028   2.118845   1.506206   2.118868
    14  H    2.382220   2.381368   2.943880   2.053868   2.943877
                   11         12         13         14
    11  H    0.000000
    12  H    1.785858   0.000000
    13  N    2.124912   2.125077   0.000000
    14  H    2.381933   2.381653   1.023003   0.000000
 Stoichiometry    C3H10N(1+)
 Framework group  C1[X(C3H10N)]
 Deg. of freedom    36
 Full point group                 C1      NOp   1
 Largest Abelian subgroup         C1      NOp   1
 Largest concise Abelian subgroup C1      NOp   1
                         Standard orientation:                         
 ---------------------------------------------------------------------
 Center     Atomic      Atomic             Coordinates (Angstroms)
 Number     Number       Type             X           Y           Z
 ---------------------------------------------------------------------
      1          6           0       -0.292876    1.409898   -0.103246
      2          1           0       -1.266186    1.705671    0.284233
      3          1           0        0.482452    2.068465    0.284116
      4          1           0       -0.298244    1.435145   -1.191743
      5          6           0        1.367515   -0.451332   -0.103251
      6          1           0        2.110209    0.244441    0.283076
      7          1           0        1.551171   -1.451496    0.285174
      8          1           0        1.391594   -0.460643   -1.191780
      9          6           0       -1.074687   -0.958548   -0.103195
     10          1           0       -1.094393   -0.975321   -1.191702
     11          1           0       -0.843696   -1.949457    0.283638
     12          1           0       -2.032792   -0.617038    0.284566
     13          7           0        0.000021    0.000009    0.338196
     14          1           0        0.000019    0.000059    1.361199
 ---------------------------------------------------------------------
 Rotational constants (GHZ):      8.0417618      8.0405144      4.6605718
 Standard basis: 6-311G(d,p) (5D, 7F)
 There are   136 symmetry adapted cartesian basis functions of A   symmetry.
 There are   132 symmetry adapted basis functions of A   symmetry.
   132 basis functions,   208 primitive gaussians,   136 cartesian basis functions
    17 alpha electrons       17 beta electrons
       nuclear repulsion energy       145.8981558127 Hartrees.
 NAtoms=   14 NActive=   14 NUniq=   14 SFac= 1.00D+00 NAtFMM=   60 NAOKFM=F Big=F
 Integral buffers will be    131072 words long.
 Raffenetti 2 integral format.
 Two-electron integral symmetry is turned on.
 One-electron integrals computed using PRISM.
 NBasis=   132 RedAO= T EigKep=  4.98D-03  NBF=   132
 NBsUse=   132 1.00D-06 EigRej= -1.00D+00 NBFU=   132
 Initial guess from the checkpoint file:  "/work/js4811/cations/NMe3H_plus/NMe3H_plus.chk"
 B after Tr=     0.000000    0.000000    0.000000
         Rot=    0.854536    0.000042   -0.000016    0.519393 Ang=  62.58 deg.
 Requested convergence on RMS density matrix=1.00D-08 within 128 cycles.
 Requested convergence on MAX density matrix=1.00D-06.
 Requested convergence on             energy=1.00D-06.
 No special actions if energy rises.
 SCF Done:  E(RB3LYP) =  -174.900800019     A.U. after    7 cycles
            NFock=  7  Conv=0.23D-08     -V/T= 2.0049
 Calling FoFJK, ICntrl=      2127 FMM=F ISym2X=0 I1Cent= 0 IOpClX= 0 NMat=1 NMatS=1 NMatT=0.
 ***** Axes restored to original set *****
 -------------------------------------------------------------------
 Center     Atomic                   Forces (Hartrees/Bohr)
 Number     Number              X              Y              Z
 -------------------------------------------------------------------
      1        6          -0.000026301   -0.000168333   -0.000011986
      2        1           0.000014638    0.000049592    0.000009317
      3        1           0.000027135    0.000068311    0.000027057
      4        1           0.000023617    0.000049302    0.000011404
      5        6           0.000016095   -0.000008168    0.000103706
      6        1          -0.000001889    0.000028233   -0.000009833
      7        1          -0.000032119    0.000014378    0.000021107
      8        1           0.000026199    0.000007123   -0.000004886
      9        6           0.000116467   -0.000041152   -0.000026485
     10        1          -0.000013221    0.000032811    0.000006678
     11        1          -0.000034106   -0.000002622   -0.000025150
     12        1          -0.000017821   -0.000020954   -0.000012157
     13        7          -0.000096117   -0.000011680   -0.000081042
     14        1          -0.000002575    0.000003158   -0.000007731
 -------------------------------------------------------------------
 Cartesian Forces:  Max     0.000168333 RMS     0.000046698

 GradGradGradGradGradGradGradGradGradGradGradGradGradGradGradGradGradGrad
 Berny optimization.
 Using GEDIIS/GDIIS optimizer.
 FormGI is forming the generalized inverse of G from B-inverse, IUseBI=4.
 Internal  Forces:  Max     0.000117716 RMS     0.000030378
 Search for a local minimum.
 Step number   4 out of a maximum of   74
 All quantities printed in internal units (Hartrees-Bohrs-Radians)
 Mixed Optimization -- En-DIIS/RFO-DIIS
 Swapping is turned off.
 Update second derivatives using D2CorX and points    1    2    3    4
 DE=  8.86D-06 DEPred=-1.10D-06 R=-8.04D+00
 Trust test=-8.04D+00 RLast= 6.02D-03 DXMaxT set to 2.52D-01
 ITU= -1  1  1  0
     Eigenvalues ---    0.00331   0.00344   0.00388   0.04073   0.04830
     Eigenvalues ---    0.04875   0.05181   0.05898   0.05930   0.05954
     Eigenvalues ---    0.05954   0.05980   0.13638   0.16000   0.16000
     Eigenvalues ---    0.16000   0.16000   0.16000   0.16000   0.16362
     Eigenvalues ---    0.17130   0.17199   0.19883   0.31789   0.32400
     Eigenvalues ---    0.33190   0.35131   0.35181   0.35203   0.35203
     Eigenvalues ---    0.35203   0.35203   0.35203   0.35242   0.37041
     Eigenvalues ---    0.45112
 En-DIIS/RFO-DIIS IScMMF=        0 using points:     4    3    2
 RFO step:  Lambda=-1.67249773D-07.
 DidBck=F Rises=F RFO-DIIS coefs:    0.92364    0.04791    0.02845
 Iteration  1 RMS(Cart)=  0.00131347 RMS(Int)=  0.00000154
 Iteration  2 RMS(Cart)=  0.00000158 RMS(Int)=  0.00000026
 Iteration  3 RMS(Cart)=  0.00000000 RMS(Int)=  0.00000026
 Variable       Old X    -DE/DX   Delta X   Delta X   Delta X     New X
                                 (Linear)    (Quad)   (Total)
    R1        2.05707   0.00000   0.00002  -0.00005  -0.00003   2.05704
    R2        2.05702   0.00002   0.00002  -0.00005  -0.00002   2.05700
    R3        2.05754   0.00003  -0.00004   0.00009   0.00005   2.05759
    R4        2.84618   0.00004   0.00019  -0.00027  -0.00008   2.84611
    R5        2.05706   0.00000   0.00002  -0.00005  -0.00003   2.05703
    R6        2.05705   0.00000   0.00002  -0.00007  -0.00005   2.05700
    R7        2.05760  -0.00001  -0.00005   0.00000  -0.00004   2.05755
    R8        2.84630  -0.00012   0.00019  -0.00068  -0.00049   2.84581
    R9        2.05756   0.00003  -0.00004   0.00009   0.00004   2.05760
   R10        2.05702   0.00002   0.00002  -0.00001   0.00001   2.05703
   R11        2.05707  -0.00001   0.00002  -0.00007  -0.00006   2.05701
   R12        2.84632  -0.00007   0.00017  -0.00045  -0.00028   2.84604
   R13        1.93320  -0.00001  -0.00010  -0.00002  -0.00012   1.93308
    A1        1.92389  -0.00006  -0.00014   0.00013  -0.00001   1.92389
    A2        1.92319  -0.00006   0.00001  -0.00066  -0.00065   1.92254
    A3        1.90064   0.00007   0.00013   0.00061   0.00074   1.90139
    A4        1.92329  -0.00007   0.00000  -0.00072  -0.00072   1.92257
    A5        1.90025   0.00010   0.00019   0.00044   0.00063   1.90088
    A6        1.89197   0.00003  -0.00019   0.00024   0.00005   1.89202
    A7        1.92360   0.00003  -0.00011   0.00038   0.00027   1.92386
    A8        1.92323  -0.00002   0.00001  -0.00043  -0.00043   1.92280
    A9        1.90064   0.00002   0.00015   0.00027   0.00042   1.90107
   A10        1.92318   0.00001   0.00000  -0.00027  -0.00027   1.92292
   A11        1.90067  -0.00005   0.00014  -0.00009   0.00005   1.90072
   A12        1.89193   0.00002  -0.00018   0.00014  -0.00003   1.89190
   A13        1.92313  -0.00001   0.00001  -0.00033  -0.00033   1.92280
   A14        1.92306  -0.00001   0.00002  -0.00041  -0.00040   1.92266
   A15        1.89197   0.00000  -0.00016  -0.00005  -0.00021   1.89177
   A16        1.92386  -0.00001  -0.00013   0.00017   0.00004   1.92390
   A17        1.90052   0.00002   0.00014   0.00028   0.00043   1.90094
   A18        1.90072   0.00002   0.00012   0.00036   0.00048   1.90120
   A19        1.95106   0.00000   0.00000  -0.00003  -0.00003   1.95103
   A20        1.95098   0.00002   0.00001   0.00010   0.00010   1.95108
   A21        1.86821   0.00000   0.00001   0.00006   0.00007   1.86828
   A22        1.95112  -0.00002  -0.00002  -0.00002  -0.00004   1.95108
   A23        1.86827   0.00000   0.00000  -0.00007  -0.00007   1.86820
   A24        1.86824   0.00000   0.00000  -0.00004  -0.00004   1.86820
    D1       -3.08951  -0.00002  -0.00006  -0.00083  -0.00089  -3.09041
    D2        0.99150  -0.00001  -0.00005  -0.00085  -0.00090   0.99060
    D3       -1.04897  -0.00002  -0.00005  -0.00090  -0.00095  -1.04992
    D4       -0.99125   0.00000  -0.00004  -0.00005  -0.00009  -0.99134
    D5        3.08976   0.00001  -0.00003  -0.00007  -0.00010   3.08966
    D6        1.04929   0.00001  -0.00003  -0.00011  -0.00015   1.04914
    D7        1.10116  -0.00001  -0.00004  -0.00052  -0.00057   1.10059
    D8       -1.10102   0.00000  -0.00003  -0.00055  -0.00057  -1.10159
    D9       -3.14148   0.00000  -0.00004  -0.00059  -0.00063   3.14108
   D10        0.99025   0.00000   0.00006   0.00067   0.00072   0.99097
   D11       -3.09084   0.00001   0.00005   0.00075   0.00081  -3.09004
   D12       -1.05026  -0.00001   0.00004   0.00066   0.00070  -1.04956
   D13        3.08840   0.00001   0.00009   0.00124   0.00133   3.08972
   D14       -0.99270   0.00002   0.00009   0.00132   0.00141  -0.99128
   D15        1.04788   0.00001   0.00008   0.00123   0.00130   1.04919
   D16       -1.10229   0.00000   0.00007   0.00094   0.00101  -1.10128
   D17        1.09981   0.00001   0.00007   0.00103   0.00110   1.10090
   D18        3.14039   0.00000   0.00005   0.00094   0.00099   3.14138
   D19        1.10052  -0.00001   0.00003  -0.00302  -0.00298   1.09754
   D20       -1.10161  -0.00002   0.00004  -0.00303  -0.00300  -1.10461
   D21        3.14097   0.00000   0.00005  -0.00292  -0.00287   3.13811
   D22       -3.09029  -0.00002   0.00003  -0.00328  -0.00325  -3.09354
   D23        0.99075  -0.00002   0.00003  -0.00330  -0.00326   0.98749
   D24       -1.04984  -0.00001   0.00004  -0.00318  -0.00314  -1.05298
   D25       -0.99187  -0.00001   0.00003  -0.00270  -0.00267  -0.99454
   D26        3.08917  -0.00001   0.00003  -0.00271  -0.00268   3.08650
   D27        1.04858   0.00000   0.00005  -0.00260  -0.00255   1.04603
         Item               Value     Threshold  Converged?
 Maximum Force            0.000118     0.000450     YES
 RMS     Force            0.000030     0.000300     YES
 Maximum Displacement     0.005497     0.001800     NO 
 RMS     Displacement     0.001313     0.001200     NO 
 Predicted change in Energy=-4.070982D-07
 GradGradGradGradGradGradGradGradGradGradGradGradGradGradGradGradGradGrad

                          Input orientation:                          
 ---------------------------------------------------------------------
 Center     Atomic      Atomic             Coordinates (Angstroms)
 Number     Number       Type             X           Y           Z
 ---------------------------------------------------------------------
      1          6           0        0.015563    0.014737    0.010666
      2          1           0        0.015675   -0.004997    1.099028
      3          1           0        1.036514   -0.006105   -0.366285
      4          1           0       -0.498819    0.904724   -0.348344
      5          6           0       -0.695892   -1.271383   -2.004136
      6          1           0        0.338729   -1.267048   -2.342439
      7          1           0       -1.191142   -2.188007   -2.319418
      8          1           0       -1.223541   -0.404599   -2.398826
      9          6           0       -2.121258   -1.271115    0.042352
     10          1           0       -2.673119   -0.402290   -0.312834
     11          1           0       -2.590354   -2.185800   -0.315712
     12          1           0       -2.079759   -1.270235    1.130085
     13          7           0       -0.718264   -1.197221   -0.500194
     14          1           0       -0.218570   -2.019125   -0.152074
 ---------------------------------------------------------------------
                    Distance matrix (angstroms):
                    1          2          3          4          5
     1  C    0.000000
     2  H    1.088540   0.000000
     3  H    1.088516   1.785849   0.000000
     4  H    1.088831   1.785268   1.785267   0.000000
     5  C    2.493933   3.426323   2.699022   2.741519   0.000000
     6  H    2.698984   3.679786   2.445826   3.065043   1.088535
     7  H    3.426005   4.231750   3.679385   3.732214   1.088519
     8  H    2.741693   3.732335   3.065595   2.538508   1.088811
     9  C    2.494078   2.699278   3.426188   2.742121   2.493949
    10  H    2.739996   3.062811   3.731113   2.537150   2.743219
[...]
 Second derivative matrix not updated -- analytic derivatives used.
 ITU=  0
     Eigenvalues ---    0.00167   0.00295   0.00298   0.03631   0.04451
     Eigenvalues ---    0.04457   0.04708   0.04785   0.04785   0.04850
     Eigenvalues ---    0.04868   0.04871   0.12564   0.12567   0.13850
     Eigenvalues ---    0.13899   0.13976   0.16728   0.17399   0.17449
     Eigenvalues ---    0.18007   0.20283   0.20301   0.29456   0.29503
     Eigenvalues ---    0.31381   0.34578   0.34596   0.34606   0.34727
     Eigenvalues ---    0.34732   0.34749   0.35275   0.35278   0.35333
     Eigenvalues ---    0.42233
 Angle between quadratic step and forces=  71.33 degrees.
 Linear search not attempted -- first point.
 Iteration  1 RMS(Cart)=  0.00097541 RMS(Int)=  0.00000059
 Iteration  2 RMS(Cart)=  0.00000061 RMS(Int)=  0.00000003
 Variable       Old X    -DE/DX   Delta X   Delta X   Delta X     New X
                                 (Linear)    (Quad)   (Total)
    R1        2.05706   0.00001   0.00000   0.00004   0.00004   2.05710
    R2        2.05706  -0.00001   0.00000  -0.00005  -0.00005   2.05701
    R3        2.05763  -0.00002   0.00000  -0.00006  -0.00006   2.05758
    R4        2.84594   0.00000   0.00000   0.00007   0.00007   2.84601
    R5        2.05706   0.00001   0.00000   0.00002   0.00002   2.05709
    R6        2.05707   0.00000   0.00000   0.00002   0.00002   2.05709
    R7        2.05765   0.00000   0.00000  -0.00001  -0.00001   2.05764
    R8        2.84589   0.00004   0.00000   0.00008   0.00008   2.84597
    R9        2.05765  -0.00002   0.00000  -0.00007  -0.00007   2.05758
   R10        2.05705   0.00000   0.00000  -0.00002  -0.00002   2.05703
   R11        2.05708   0.00000   0.00000   0.00000   0.00000   2.05707
   R12        2.84592   0.00002   0.00000   0.00012   0.00012   2.84604
   R13        1.93319   0.00000   0.00000   0.00001   0.00001   1.93320
    A1        1.92384   0.00002   0.00000   0.00005   0.00005   1.92389
    A2        1.92271   0.00001   0.00000  -0.00003  -0.00003   1.92269
    A3        1.90080  -0.00005   0.00000  -0.00039  -0.00039   1.90042
    A4        1.92277   0.00002   0.00000   0.00030   0.00030   1.92307
    A5        1.90099  -0.00002   0.00000  -0.00009  -0.00009   1.90090
    A6        1.89215   0.00002   0.00000   0.00015   0.00015   1.89230
    A7        1.92368  -0.00002   0.00000  -0.00033  -0.00033   1.92335
    A8        1.92273   0.00001   0.00000   0.00020   0.00020   1.92293
    A9        1.90086   0.00000   0.00000  -0.00010  -0.00010   1.90076
   A10        1.92279   0.00000   0.00000   0.00014   0.00014   1.92293
   A11        1.90085   0.00001   0.00000  -0.00006  -0.00006   1.90079
   A12        1.89237   0.00001   0.00000   0.00014   0.00014   1.89251
   A13        1.92290   0.00001   0.00000   0.00017   0.00017   1.92307
   A14        1.92276   0.00000   0.00000  -0.00006  -0.00006   1.92270
   A15        1.89216   0.00002   0.00000   0.00011   0.00011   1.89227
   A16        1.92384   0.00002   0.00000   0.00013   0.00013   1.92397
   A17        1.90091  -0.00002   0.00000  -0.00006  -0.00006   1.90086
   A18        1.90069  -0.00004   0.00000  -0.00030  -0.00030   1.90039
   A19        1.95126   0.00003   0.00000   0.00041   0.00041   1.95167
   A20        1.95101  -0.00005   0.00000  -0.00026  -0.00026   1.95075
   A21        1.86806   0.00000   0.00000  -0.00015  -0.00015   1.86791
   A22        1.95128   0.00004   0.00000   0.00035   0.00035   1.95163
   A23        1.86815  -0.00003   0.00000  -0.00023  -0.00023   1.86791
   A24        1.86807   0.00001   0.00000  -0.00016  -0.00016   1.86791
    D1       -3.08974   0.00002   0.00000   0.00187   0.00187  -3.08787
    D2        0.99087  -0.00001   0.00000   0.00129   0.00129   0.99216
    D3       -1.04932   0.00001   0.00000   0.00172   0.00172  -1.04760
    D4       -0.99101   0.00001   0.00000   0.00164   0.00164  -0.98937
    D5        3.08960  -0.00002   0.00000   0.00106   0.00106   3.09066
    D6        1.04941   0.00000   0.00000   0.00149   0.00149   1.05090
    D7        1.10131   0.00003   0.00000   0.00204   0.00204   1.10335
    D8       -1.10127   0.00000   0.00000   0.00146   0.00146  -1.09981
    D9       -3.14146   0.00002   0.00000   0.00189   0.00189  -3.13957
   D10        0.99194   0.00002   0.00000  -0.00117  -0.00117   0.99077
   D11       -3.08882   0.00000   0.00000  -0.00092  -0.00092  -3.08974
   D12       -1.04843   0.00001   0.00000  -0.00107  -0.00107  -1.04951
   D13        3.09042  -0.00001   0.00000  -0.00166  -0.00166   3.08876
   D14       -0.99034  -0.00002   0.00000  -0.00141  -0.00141  -0.99175
   D15        1.05005  -0.00001   0.00000  -0.00156  -0.00156   1.04849
   D16       -1.10038   0.00000   0.00000  -0.00144  -0.00144  -1.10182
   D17        1.10205  -0.00001   0.00000  -0.00119  -0.00119   1.10085
   D18       -3.14075   0.00000   0.00000  -0.00135  -0.00135   3.14109
   D19        1.09991   0.00001   0.00000  -0.00060  -0.00060   1.09931
   D20       -1.10265  -0.00002   0.00000  -0.00122  -0.00122  -1.10387
   D21        3.14010  -0.00001   0.00000  -0.00102  -0.00102   3.13908
   D22       -3.09084   0.00002   0.00000  -0.00037  -0.00037  -3.09120
   D23        0.98978  -0.00001   0.00000  -0.00098  -0.00098   0.98880
   D24       -1.05065   0.00000   0.00000  -0.00079  -0.00079  -1.05144
   D25       -0.99222   0.00002   0.00000  -0.00042  -0.00042  -0.99264
   D26        3.08840  -0.00002   0.00000  -0.00104  -0.00104   3.08736
   D27        1.04796   0.00000   0.00000  -0.00084  -0.00084   1.04712
         Item               Value     Threshold  Converged?
 Maximum Force            0.000053     0.000450     YES
 RMS     Force            0.000018     0.000300     YES
 Maximum Displacement     0.003074     0.001800     NO 
 RMS     Displacement     0.000975     0.001200     YES
 Predicted change in Energy=-1.619280D-07
 GradGradGradGradGradGradGradGradGradGradGradGradGradGradGradGradGradGrad

 1\1\GINC-CX1-9-15-1\Freq\RB3LYP\6-311G(d,p)\C3H10N1(1+)\JS4811\10-Mar-
 2016\0\\#N Geom=AllCheck Guess=TCheck SCRF=Check GenChk RB3LYP/6-311G(
 d,p) Freq\\Title\\1,1\C,0.0154695967,0.014652685,0.0108394207\H,0.0156
 445957,-0.0062322017,1.0991887869\H,1.0364429751,-0.0059751278,-0.3661
 616396\H,-0.499054888,0.9048982494,-0.347390092\C,-0.6959440369,-1.271
 1297381,-2.0043941792\H,0.3388023179,-1.2679204363,-2.3423786325\H,-1.
 1919304337,-2.18731393,-2.3199088412\H,-1.2225800468,-0.403896931,-2.3
 995912439\C,-2.1212416855,-1.2710355801,0.0423246092\H,-2.6741723355,-
 0.4034078947,-0.3142000938\H,-2.5894895789,-2.1869200853,-0.3137988297
 \H,-2.0791248106,-1.2681847775,1.130063958\N,-0.718392767,-1.197012590
 1,-0.5004068363\H,-0.2186662567,-2.0189862259,-0.152317258\\Version=ES
 64L-G09RevD.01\State=1-A\HF=-174.9008038\RMSD=5.219e-09\RMSF=1.959e-05
 \ZeroPoint=0.1355936\Thermal=0.1412219\Dipole=0.1669228,-0.2744761,0.1
 16222\DipoleDeriv=0.1706512,0.0944454,0.0806673,0.167036,0.3266021,0.1
 163034,0.0808121,0.0658305,0.1108418,0.1027412,-0.0301084,0.0254843,-0
 .0308028,0.0588296,0.028895,0.0019187,-0.0010943,0.0007194,0.0219281,-
 0.0113933,0.0318463,0.0163835,0.058868,-0.0388346,0.0552972,-0.0278151
 ,0.0816187,0.0355192,0.0549339,-0.0543278,0.0019183,0.0648267,0.001406
 8,-0.0542899,0.0381989,0.07578,0.0693886,-0.0239876,0.0188462,-0.02506
 44,0.0958634,-0.0217837,-0.0266804,0.0538823,0.4428586,-0.0061202,-0.0
 0337,0.017088,-0.0092686,0.1182416,0.0048205,-0.0203218,0.0016009,0.05
 03143,0.0854699,-0.0577824,-0.0122828,-0.0523037,0.0266378,-0.0114044,
 0.0080936,0.020219,0.0503306,0.0799761,0.0556388,-0.0079706,0.0564613,
 0.0198433,0.0123641,0.0251868,-0.0428052,0.0762133,0.3953675,0.0423587
 ,-0.1472168,-0.0291054,0.095907,-0.0159274,-0.1017622,-0.0413031,0.116
 848,0.0823062,-0.0209755,0.0243231,0.0312811,0.0198234,0.0486312,-0.00
 88239,0.0669697,0.0740644,0.0532412,-0.0011026,0.0200338,-0.0288095,0.
 0266717,-0.0450581,-0.0003902,-0.0612364,0.0824426,0.0423843,0.0002764
 ,-0.0384037,0.0012383,0.1181506,-0.0104029,-0.0008385,-0.003635,0.0017
 039,-0.2922868,-0.0593956,0.0251437,-0.0594325,-0.2307059,-0.0414625,0
 .0250499,-0.0412985,-0.3107576,0.1594336,-0.0395377,0.0167689,-0.03953
 18,0.2004406,-0.0275474,0.0167488,-0.0275136,0.147022\Polar=40.1887716
 ,2.3528319,37.7492728,-0.9965206,1.6392901,40.9275418\PG=C01 [X(C3H10N
 1)]\NImag=0\\0.57812794,-0.08016623,0.49158152,-0.03679367,-0.05585489
 ,0.60535930,-0.05031951,-0.00057604,0.00799430,0.04985056,-0.00016193,
 -0.05103911,0.01919081,0.00524004,0.05522922,0.00097052,0.00819126,-0.
 32671861,-0.00119850,-0.00732606,0.34808715,-0.29061933,0.00750244,0.0
 8971809,0.00327473,0.00083825,-0.00055495,0.31148136,0.01792523,-0.051
 01570,-0.00672135,-0.00071539,0.00018029,0.00115312,-0.00507237,0.0552
 2561,0.09673526,-0.00321007,-0.08645591,0.02966285,-0.00106582,-0.0074
 7604,-0.09781158,0.00736165,0.08641587,-0.11768409,0.11490046,-0.04720
 309,0.00052708,-0.00157074,0.00120237,-0.01078298,0.02378432,-0.011112
 25,0.12025952,0.10405325,-0.22519519,0.07240003,-0.00021807,0.00228094
 ,0.00008538,-0.00003963,0.00227712,-0.00028210,-0.11242318,0.25017102,
 -0.04711666,0.07992206,-0.08270251,-0.01536822,0.02592427,-0.00713802,
 0.00536599,-0.01048028,0.00416301,0.05132856,-0.07819112,0.08221346,0.
 00071114,-0.00105133,-0.01804978,-0.00171348,-0.00298415,-0.00071697,0
 .00013847,-0.00025005,-0.00132692,0.00035381,0.00073844,0.00082015,0.6
 2911975,-0.00107769,-0.00105222,-0.03234445,-0.00277399,-0.00468863,-0
 .00165908,0.00089507,0.00075597,-0.00001160,0.00013206,0.00070669,-0.0
 0105118,0.00311366,0.62561290,-0.00613358,-0.01075902,-0.01746556,0.00
 024179,0.00031752,0.00090630,0.00120666,0.00180629,0.00129478,0.001168
 49,0.00184760,0.00159199,0.00292151,-0.00993505,0.42015753,0.00056994,
 0.00011152,-0.00077898,0.00027585,0.00003803,-0.00004265,0.00054728,0.
 00013583,-0.00009643,-0.00015687,-0.00002415,0.00008774,-0.30607650,-0
 .00034205,0.08039182,0.32162210,0.00104449,0.00025379,-0.00036924,-0.0
 0013731,-0.00013644,0.00013857,-0.00030118,0.00013648,-0.00051589,0.00
 018402,-0.00005467,-0.00006296,-0.00148685,-0.05029095,0.00032580,0.00
 148583,0.04678017,0.00192022,0.00139588,0.00134848,-0.00021479,0.00019
 936,0.00012567,-0.00076531,-0.00049932,-0.00018548,-0.00019366,-0.0001
 8307,-0.00005765,0.06728192,0.00010588,-0.07167405,-0.08386556,0.00028
 777,0.08481558,0.00000390,0.00023956,0.00035341,0.00056371,-0.00005334
 ,0.00001333,0.00038062,0.00011415,0.00009649,-0.00003265,-0.00017731,0
 .00000075,-0.10893538,-0.10886054,-0.03580959,-0.01054661,-0.02516838,
 -0.00903721,0.11032717,0.00006209,0.00065226,0.00034194,-0.00004652,0.
 00040377,0.00009627,-0.00000448,-0.00009972,0.00011442,-0.00006578,0.0
 0036124,0.00020125,-0.10791231,-0.25051413,-0.06618259,0.00149078,0.00
 222852,0.00152996,0.11686097,0.26160792,0.00154906,0.00218371,-0.00615
 225,-0.00103705,-0.00182549,-0.00024595,-0.00011154,0.00019450,-0.0000
 1198,0.00018958,-0.00010839,-0.00006680,-0.02951981,-0.05472266,-0.068
 57019,0.00319374,0.00926947,0.00426710,0.03702833,0.06938246,0.0813120
 1,-0.00022537,0.00051485,-0.00005280,-0.00000641,-0.00031126,0.0001349
 1,-0.00012877,0.00020471,-0.00005091,0.00024161,-0.00028592,-0.0004505
 7,-0.11600000,0.10918636,-0.04811696,-0.01156136,0.02398628,-0.0113276
 4,0.00847667,-0.01235363,0.00682825,0.11744069,-0.00032928,0.00133029,
 -0.00047813,-0.00004398,0.00007569,0.00003334,-0.00002892,-0.00002346,
 0.00003145,0.00023435,0.00028917,-0.00001097,0.10936952,-0.22988044,0.
 07939807,-0.00176646,0.00198967,-0.00159233,0.01373241,-0.01775572,0.0
 0925625,-0.11724300,0.23950567,0.00040334,0.00227546,0.00157123,0.0002
 2114,-0.00022276,0.00019402,-0.00004967,-0.00024960,-0.00009502,-0.000
 02270,-0.00083014,-0.00006901,-0.04142106,0.06821973,-0.07951761,0.003
 75137,-0.00887390,0.00528105,0.00583587,-0.00692138,0.00497121,0.05033
 202,-0.08259347,0.09502138,-0.02320076,-0.01051609,0.00267760,0.001063
 29,0.00161314,0.00087111,0.00043254,-0.00073895,-0.00055196,0.00209474
 ,0.00199484,0.00051832,-0.00046264,0.00031989,0.01200139,0.00056411,-0
 .00013895,-0.00279834,0.00076607,-0.00002173,-0.00211498,0.00102621,-0
 .00020337,-0.00217652,0.44707590,-0.03069334,-0.00114726,0.01021205,0.
 00018070,0.00074783,0.00085476,-0.00251681,-0.00468770,-0.00202625,-0.
 00090944,0.00072448,0.00047053,0.00059547,0.00121700,0.00012127,-0.000
 28932,0.00001506,-0.00041886,0.00090051,0.00002649,-0.00104036,-0.0009
 8833,0.00004335,0.00074926,-0.00821453,0.62568988,-0.00923997,0.002745
 56,0.00638303,-0.00171244,-0.00088227,0.00032960,-0.00151100,-0.002909
 27,-0.00124421,0.00018276,0.00006486,-0.00013940,0.03661190,0.00051700
 ,-0.01850051,-0.00060809,-0.00022237,-0.00607409,0.00070398,0.00053700
 ,0.00138022,0.00047587,-0.00014368,0.00158230,0.07015698,0.00624887,0.
 60223937,0.00145690,0.00231827,-0.00020822,-0.00013796,-0.00016385,-0.
 00004652,0.00028974,-0.00031635,0.00011434,-0.00019308,-0.00079445,0.0
 0014004,0.00094617,0.00035031,-0.00216694,0.00016958,-0.00028481,0.000
 00635,-0.00000422,-0.00010154,0.00025140,0.00027844,-0.00028865,0.0007
 5535,-0.11286995,0.10166922,-0.04236260,0.13046073,-0.00058966,0.00134
 066,-0.00013834,0.00002767,-0.00002457,-0.00003489,0.00001529,0.000074
 25,-0.00005272,0.00000924,0.00022579,0.00025293,-0.00020038,0.00004785
 ,-0.00014266,-0.00018153,0.00015239,-0.00021701,0.00011348,-0.00020230
 ,0.00008139,0.00022169,0.00027875,-0.00038892,0.11237003,-0.23015420,0
 .07494885,-0.11804095,0.23996529,-0.00068820,-0.00030628,-0.00011331,-
 0.00006882,0.00027592,-0.00009792,0.00002663,-0.00021320,-0.00009910,-
 0.00026546,0.00001990,0.00033238,0.00056157,-0.00120405,0.00164145,-0.
 00018095,0.00009787,-0.00006249,0.00001340,-0.00010388,-0.00006361,0.0
 0020303,0.00040986,-0.00006972,-0.04917346,0.07863110,-0.08256162,0.04
 534214,-0.08130592,0.08211564,-0.00479535,0.00212749,0.00332426,0.0000
 3329,0.00022347,0.00001689,-0.00048093,-0.00173051,-0.00065115,-0.0000
 0007,-0.00016166,0.00017612,0.00085657,-0.00065958,-0.00216810,0.00004
 648,0.00028667,-0.00012586,0.00018608,0.00034061,0.00077978,0.00003217
 ,0.00013038,0.00023773,-0.09480964,-0.08912665,-0.03487305,0.00950190,
 0.01344374,0.00646927,0.10902051,0.00033894,0.00065142,-0.00005952,0.0
 0010717,-0.00009791,-0.00004455,0.00007422,0.00040413,-0.00007721,0.00
 016840,0.00036338,-0.00013329,0.00050956,0.00001525,-0.00022909,0.0001
 7363,0.00023198,0.00018288,-0.00007685,0.00052539,0.00043448,-0.000117
 80,-0.00017569,-0.00006547,-0.09952319,-0.25048309,-0.07832122,-0.0108
 0609,-0.01773534,-0.00915726,0.10562647,0.26147555,0.00212591,-0.00053
 112,-0.00135484,0.00022498,0.00003895,0.00033591,0.00039980,0.00058284
 ,0.00079907,-0.00001147,-0.00012854,-0.00009834,0.00064418,0.00120813,
 0.00132396,-0.00015051,-0.00004035,-0.00000658,0.00048108,-0.00016110,
 -0.00018373,-0.00000521,0.00004783,-0.00009906,-0.04114695,-0.08309399
 ,-0.08281034,0.00546978,0.00965126,0.00389677,0.03756842,0.08548650,0.
 08266945,0.00157487,0.00136332,0.00152129,-0.00023857,-0.00035321,-0.0
 0035700,0.00006584,0.00020236,-0.00013738,-0.00011002,-0.00018150,-0.0
 0020983,-0.00638267,-0.00049626,-0.00022895,0.00043991,0.00006148,0.00
 208222,-0.00009056,0.00023170,-0.00007453,-0.00009020,-0.00026753,0.00
 010376,-0.05184707,0.00008394,-0.02674116,0.00079632,-0.00210841,-0.01
 584966,0.00061086,0.00195814,-0.01315913,0.05875917,-0.00006184,0.0002
 5925,0.00109257,-0.00044486,0.00021001,-0.00011296,0.00008555,-0.00013
 460,-0.00017718,0.00001176,-0.00005271,0.00018603,-0.00025237,0.000014
 85,-0.00005343,0.00004281,0.00057053,0.00004815,0.00006111,0.00023164,
 0.00028007,-0.00000669,0.00015335,-0.00029916,-0.00019648,-0.05014955,
 -0.00128828,-0.00000147,0.00194788,0.02562505,-0.00005292,0.00224097,-
 0.02681920,0.00075994,0.04663733,-0.00119306,-0.00039781,0.00031664,0.
 00033437,0.00030332,0.00076660,0.00003617,-0.00003439,0.00034154,0.000
 05280,0.00002530,-0.00009566,0.00196226,-0.00012419,0.00087486,-0.0001
 0699,0.00002298,-0.00029052,-0.00009833,0.00009754,0.00012596,-0.00008
 638,-0.00009634,0.00019861,-0.01370425,-0.00025629,-0.32593574,-0.0008
 0525,-0.00108559,-0.00706379,-0.00093149,0.00087295,-0.00686869,0.0133
 1924,0.00109871,0.34757584,-0.10580777,-0.01934353,-0.00890557,-0.0035
 5830,-0.00285754,-0.00031620,-0.01473535,-0.03313679,-0.01547885,0.007
 41098,0.01082044,0.00615781,-0.09456703,0.00185913,-0.00300985,0.00381
 816,0.00115541,0.03632471,-0.00081953,0.00146863,-0.01659678,0.0000825
 8,-0.00284894,-0.01874863,-0.14852035,0.00183413,0.01855538,-0.0256032
 1,-0.00319103,0.01055428,-0.02078039,0.00202888,0.00847911,-0.00490571
 ,-0.00001035,0.00088966,0.54608221,-0.02150817,-0.13981680,-0.01505505
 ,-0.00121518,-0.00422664,-0.00094228,-0.00124914,-0.00417262,-0.000805
 89,-0.02078312,-0.02965430,-0.01446539,0.00189380,-0.09644590,0.003440
 54,-0.00065212,-0.00194932,-0.00090755,0.00272978,0.00193432,-0.032807
 20,-0.00236777,0.00332052,0.03065409,0.00392367,-0.09634376,0.00069097
 ,0.02797950,0.00323485,-0.01286081,-0.02977027,0.00199181,0.01395075,-
 0.00121333,-0.00200053,-0.00021151,-0.09522708,0.64475886,-0.00893496,
 -0.01350328,-0.09948102,-0.01959808,-0.03430790,-0.00897314,0.00393457
 ,0.00932597,0.00239434,0.00613265,0.00757813,0.00292019,-0.00148137,0.
 00104690,-0.15439288,-0.00234703,-0.00038006,-0.01849847,0.00102186,0.
 00157732,-0.01779334,0.00110658,-0.00241433,-0.02245674,0.01710441,0.0
 0147803,-0.10031918,-0.00931272,-0.00179100,0.00312606,-0.00916798,0.0
 0088916,0.00220632,0.03946192,0.00116781,-0.00985883,0.04026334,-0.066
 36615,0.51605776,0.01020749,-0.01742469,0.00640317,0.00038571,0.000503
 10,0.00002366,0.00013678,-0.00040619,0.00060850,-0.00192798,-0.0033011
 1,-0.00145020,0.00201179,-0.00164637,-0.00029768,0.00028794,-0.0006867
 1,0.00071294,-0.00027527,0.00005122,-0.00036545,0.00043374,-0.00044653
 ,0.00077799,-0.02131243,0.02747444,-0.00963855,-0.00509136,-0.00188918
 ,0.00305623,0.00057854,-0.00046148,-0.00091999,0.00141785,0.00006581,0
 .00033126,-0.13809629,0.13745944,-0.05818320,0.15124350,0.01116413,-0.
 02680291,0.00778358,0.00061578,0.00108555,-0.00043289,-0.00019827,0.00
 107995,0.00071722,-0.00367235,-0.00244297,-0.00256188,-0.00208301,0.00
 450174,0.00004474,-0.00022279,0.00007279,0.00006826,-0.00041558,0.0006
 0032,-0.00057824,-0.00043949,0.00084885,-0.00145372,-0.00066827,0.0045
 0146,-0.00198601,-0.00151916,0.00084870,0.00009171,-0.00067723,0.00059
 215,-0.00019196,-0.00004064,0.00007156,-0.00021468,0.13744863,-0.28063
 050,0.09569940,-0.13929176,0.29567330,0.00639578,-0.01215145,0.0054653
 1,0.00051845,-0.00061987,-0.00009556,0.00011615,0.00068303,0.00015914,
 -0.00144857,-0.00229785,-0.00085363,-0.01828756,0.02995461,-0.01767007
 ,0.00075253,0.00032232,0.00101145,-0.00060336,-0.00050921,0.00103136,0
 .00100981,-0.00184754,-0.00651264,0.00833664,-0.01193011,0.00567056,0.
 00282284,0.00022263,-0.00098072,-0.00065483,0.00022163,0.00019009,0.00
 026922,-0.00074817,-0.00008680,-0.05816842,0.09568549,-0.09493108,0.05
 894131,-0.09698552,0.10760258\\-0.00001467,-0.00006308,0.00001679,0.00
 001104,0.00002851,-0.00001002,0.00001341,0.00002112,0.00000008,0.00000
 384,0.00001030,-0.00003011,0.00000551,-0.00000600,0.00002890,-0.000005
 93,0.00002196,0.00000243,-0.00002710,0.00001542,0.00000694,0.00000931,
 0.00000069,-0.00000064,0.00005595,-0.00002649,-0.00001303,-0.00000969,
 0.00001280,-0.00002671,-0.00001441,0.00000043,0.00000589,-0.00002324,-
 0.00000728,0.00000329,-0.00000585,-0.00001562,0.00001628,0.00000184,0.
 00000724,-0.00000011\\\@


 "ANNA, YOU MUSN'T SPEAK OF OXIDIZED MURIATIC ACID
 ANYMORE, FROM NOW ON YOU MUST SAY CHLORINE."
   -- JENS JACOB BERZELIUS, IN 1820, TO HIS COOK, WHO HAD
 COMPLAINED OF THE SMELL OF THE FLASK SHE WAS CLEANING.
 Job cpu time:       0 days  0 hours  4 minutes  1.5 seconds.
 File lengths (MBytes):  RWF=    133 Int=      0 D2E=      0 Chk=      3 Scr=      2
 Normal termination of Gaussian 09 at Thu Mar 10 22:40:18 2016.
