 Entering Gaussian System, Link 0=g09
 Input=NMe3H_plus_nbo.com
 Output=NMe3H_plus_nbo.log
 Initial command:
 /Applications/g09/l1.exe "/Users/js4811/Scratch/Gau-4702.inp" -scrdir="/Users/js4811/Scratch/"
 Entering Link 1 = /Applications/g09/l1.exe PID=      4703.
  
 Copyright (c) 1988,1990,1992,1993,1995,1998,2003,2009,2013,
            Gaussian, Inc.  All Rights Reserved.
  
 This is part of the Gaussian(R) 09 program.  It is based on
 the Gaussian(R) 03 system (copyright 2003, Gaussian, Inc.),
 the Gaussian(R) 98 system (copyright 1998, Gaussian, Inc.),
 the Gaussian(R) 94 system (copyright 1995, Gaussian, Inc.),
 the Gaussian 92(TM) system (copyright 1992, Gaussian, Inc.),
 the Gaussian 90(TM) system (copyright 1990, Gaussian, Inc.),
 the Gaussian 88(TM) system (copyright 1988, Gaussian, Inc.),
 the Gaussian 86(TM) system (copyright 1986, Carnegie Mellon
 University), and the Gaussian 82(TM) system (copyright 1983,
 Carnegie Mellon University). Gaussian is a federally registered
 trademark of Gaussian, Inc.
  
 This software contains proprietary and confidential information,
 including trade secrets, belonging to Gaussian, Inc.
  
 This software is provided under written license and may be
 used, copied, transmitted, or stored only in accord with that
 written license.
  
 The following legend is applicable only to US Government
 contracts under FAR:
  
                    RESTRICTED RIGHTS LEGEND
  
 Use, reproduction and disclosure by the US Government is
 subject to restrictions as set forth in subparagraphs (a)
 and (c) of the Commercial Computer Software - Restricted
 Rights clause in FAR 52.227-19.
  
 Gaussian, Inc.
 340 Quinnipiac St., Bldg. 40, Wallingford CT 06492
  
  
 ---------------------------------------------------------------
 Warning -- This program may not be used in any manner that
 competes with the business of Gaussian, Inc. or will provide
 assistance to any competitor of Gaussian, Inc.  The licensee
 of this program is prohibited from giving any competitor of
 Gaussian, Inc. access to this program.  By using this program,
 the user acknowledges that Gaussian, Inc. is engaged in the
 business of creating and licensing software in the field of
 computational chemistry and represents and warrants to the
 licensee that it is not a competitor of Gaussian, Inc. and that
 it will not use this program in any manner prohibited above.
 ---------------------------------------------------------------
  

 Cite this work as:
 Gaussian 09, Revision D.01,
 M. J. Frisch, G. W. Trucks, H. B. Schlegel, G. E. Scuseria, 
 M. A. Robb, J. R. Cheeseman, G. Scalmani, V. Barone, B. Mennucci, 
 G. A. Petersson, H. Nakatsuji, M. Caricato, X. Li, H. P. Hratchian, 
 A. F. Izmaylov, J. Bloino, G. Zheng, J. L. Sonnenberg, M. Hada, 
 M. Ehara, K. Toyota, R. Fukuda, J. Hasegawa, M. Ishida, T. Nakajima, 
 Y. Honda, O. Kitao, H. Nakai, T. Vreven, J. A. Montgomery, Jr., 
 J. E. Peralta, F. Ogliaro, M. Bearpark, J. J. Heyd, E. Brothers, 
 K. N. Kudin, V. N. Staroverov, T. Keith, R. Kobayashi, J. Normand, 
 K. Raghavachari, A. Rendell, J. C. Burant, S. S. Iyengar, J. Tomasi, 
 M. Cossi, N. Rega, J. M. Millam, M. Klene, J. E. Knox, J. B. Cross, 
 V. Bakken, C. Adamo, J. Jaramillo, R. Gomperts, R. E. Stratmann, 
 O. Yazyev, A. J. Austin, R. Cammi, C. Pomelli, J. W. Ochterski, 
 R. L. Martin, K. Morokuma, V. G. Zakrzewski, G. A. Voth, 
 P. Salvador, J. J. Dannenberg, S. Dapprich, A. D. Daniels, 
 O. Farkas, J. B. Foresman, J. V. Ortiz, J. Cioslowski, 
 and D. J. Fox, Gaussian, Inc., Wallingford CT, 2013.
 
 ******************************************
 Gaussian 09:  EM64M-G09RevD.01 24-Apr-2013
                14-Mar-2016 
 ******************************************
 %chk=NMe3H_plus_nbo.chk
 -------------------------------------------------
 # B3LYP/6-311G(d,p) Geom=Check Guess=Read Pop=NPA
 -------------------------------------------------
 1/29=2,38=1/1;
 2/12=2,40=1/2;
 3/5=4,6=6,7=101,11=2,14=-4,16=1,25=1,30=1,74=-5,116=-2/1,2,3;
 4/5=1/1;
 5/5=2,38=6/2;
 6/7=2,8=2,9=2,10=2,28=1,40=-1/1,7;
 99/5=1,9=1/99;
 -----
 Title
 -----
 Structure from the checkpoint file:  "NMe3H_plus_nbo.chk"
 Charge =  1 Multiplicity = 1
 Redundant internal coordinates found in file.
 C,0,0.0154695967,0.014652685,0.0108394207
 H,0,0.0156445957,-0.0062322017,1.0991887869
 H,0,1.0364429751,-0.0059751278,-0.3661616396
 H,0,-0.499054888,0.9048982494,-0.347390092
 C,0,-0.6959440369,-1.2711297381,-2.0043941792
 H,0,0.3388023179,-1.2679204363,-2.3423786325
 H,0,-1.1919304337,-2.18731393,-2.3199088412
 H,0,-1.2225800468,-0.403896931,-2.3995912439
 C,0,-2.1212416855,-1.2710355801,0.0423246092
 H,0,-2.6741723355,-0.4034078947,-0.3142000938
 H,0,-2.5894895789,-2.1869200853,-0.3137988297
 H,0,-2.0791248106,-1.2681847775,1.130063958
 N,0,-0.718392767,-1.1970125901,-0.5004068363
 H,0,-0.2186662567,-2.0189862259,-0.152317258
 Recover connectivity data from disk.
                          Input orientation:                          
 ---------------------------------------------------------------------
 Center     Atomic      Atomic             Coordinates (Angstroms)
 Number     Number       Type             X           Y           Z
 ---------------------------------------------------------------------
      1          6           0        0.015470    0.014653    0.010839
      2          1           0        0.015645   -0.006232    1.099189
      3          1           0        1.036443   -0.005975   -0.366162
      4          1           0       -0.499055    0.904898   -0.347390
      5          6           0       -0.695944   -1.271130   -2.004394
      6          1           0        0.338802   -1.267920   -2.342379
      7          1           0       -1.191930   -2.187314   -2.319909
      8          1           0       -1.222580   -0.403897   -2.399591
      9          6           0       -2.121242   -1.271036    0.042325
     10          1           0       -2.674172   -0.403408   -0.314200
     11          1           0       -2.589490   -2.186920   -0.313799
     12          1           0       -2.079125   -1.268185    1.130064
     13          7           0       -0.718393   -1.197013   -0.500407
     14          1           0       -0.218666   -2.018986   -0.152317
 ---------------------------------------------------------------------
                    Distance matrix (angstroms):
                    1          2          3          4          5
     1  C    0.000000
     2  H    1.088550   0.000000
     3  H    1.088550   1.785856   0.000000
     4  H    1.088853   1.785403   1.785440   0.000000
     5  C    2.494095   3.426157   2.699183   2.742175   0.000000
     6  H    2.699476   3.679766   2.446353   3.066452   1.088551
     7  H    3.426202   4.231499   3.679812   3.732651   1.088552
     8  H    2.741920   3.732667   3.065349   2.539284   1.088861
     9  C    2.493897   2.698698   3.426107   2.741907   2.494099
    10  H    2.741277   3.064397   3.732200   2.538484   2.742824
    11  H    3.426095   3.679492   4.231625   3.732343   2.698574
    12  H    2.699196   2.445718   3.679487   3.066232   3.426080
    13  N    1.506008   2.124965   2.125098   2.118856   1.505980
    14  H    2.053564   2.381669   2.381857   2.943768   2.053600
                    6          7          8          9         10
     6  H    0.000000
     7  H    1.785758   0.000000
     8  H    1.785420   1.785459   0.000000
     9  C    3.426169   2.698765   2.742713   0.000000
    10  H    3.733484   3.066305   2.540861   1.088862   0.000000
    11  H    3.678939   2.444923   3.065639   1.088542   1.785522
    12  H    4.231339   3.678889   3.733514   1.088558   1.785447
    13  N    2.124982   2.124976   2.118995   1.505995   2.118857
    14  H    2.381437   2.382022   2.943908   2.053560   2.943775
                   11         12         13         14
    11  H    0.000000
    12  H    1.785857   0.000000
    13  N    2.125028   2.124875   0.000000
    14  H    2.382243   2.381073   1.023002   0.000000
 Stoichiometry    C3H10N(1+)
 Framework group  C1[X(C3H10N)]
 Deg. of freedom    36
 Full point group                 C1      NOp   1
 Largest Abelian subgroup         C1      NOp   1
 Largest concise Abelian subgroup C1      NOp   1
                         Standard orientation:                         
 ---------------------------------------------------------------------
 Center     Atomic      Atomic             Coordinates (Angstroms)
 Number     Number       Type             X           Y           Z
 ---------------------------------------------------------------------
      1          6           0       -0.729859    1.241210   -0.103109
      2          1           0       -1.746718    1.208803    0.284044
      3          1           0       -0.207409    2.114236    0.283948
      4          1           0       -0.743233    1.263760   -1.191647
      5          6           0        1.439947    0.011390   -0.103151
      6          1           0        1.920706    0.907684    0.284756
      7          1           0        1.934416   -0.878021    0.283364
      8          1           0        1.466352    0.012480   -1.191692
      9          6           0       -0.710132   -1.252609   -0.103140
     10          1           0       -0.724370   -1.274654   -1.191685
     11          1           0       -0.173180   -2.117251    0.282868
     12          1           0       -1.726933   -1.236835    0.285222
     13          7           0        0.000083   -0.000017    0.338027
     14          1           0        0.000045   -0.000026    1.361030
 ---------------------------------------------------------------------
 Rotational constants (GHZ):      8.0428528      8.0412874      4.6608866
 Standard basis: 6-311G(d,p) (5D, 7F)
 There are   136 symmetry adapted cartesian basis functions of A   symmetry.
 There are   132 symmetry adapted basis functions of A   symmetry.
   132 basis functions,   208 primitive gaussians,   136 cartesian basis functions
    17 alpha electrons       17 beta electrons
       nuclear repulsion energy       145.9048121263 Hartrees.
 NAtoms=   14 NActive=   14 NUniq=   14 SFac= 1.00D+00 NAtFMM=   60 NAOKFM=F Big=F
 Integral buffers will be    131072 words long.
 Raffenetti 2 integral format.
 Two-electron integral symmetry is turned on.
 One-electron integrals computed using PRISM.
 NBasis=   132 RedAO= T EigKep=  4.98D-03  NBF=   132
 NBsUse=   132 1.00D-06 EigRej= -1.00D+00 NBFU=   132
 Initial guess from the checkpoint file:  "NMe3H_plus_nbo.chk"
 B after Tr=     0.000000    0.000000    0.000000
         Rot=    1.000000    0.000000    0.000000    0.000000 Ang=   0.00 deg.
 Requested convergence on RMS density matrix=1.00D-08 within 128 cycles.
 Requested convergence on MAX density matrix=1.00D-06.
 Requested convergence on             energy=1.00D-06.
 No special actions if energy rises.
 SCF Done:  E(RB3LYP) =  -174.900803791     A.U. after    1 cycles
            NFock=  1  Conv=0.81D-08     -V/T= 2.0049

 **********************************************************************

            Population analysis using the SCF density.

 **********************************************************************

 Orbital symmetries:
       Occupied  (A) (A) (A) (A) (A) (A) (A) (A) (A) (A) (A) (A)
                 (A) (A) (A) (A) (A)
       Virtual   (A) (A) (A) (A) (A) (A) (A) (A) (A) (A) (A) (A)
                 (A) (A) (A) (A) (A) (A) (A) (A) (A) (A) (A) (A)
                 (A) (A) (A) (A) (A) (A) (A) (A) (A) (A) (A) (A)
                 (A) (A) (A) (A) (A) (A) (A) (A) (A) (A) (A) (A)
                 (A) (A) (A) (A) (A) (A) (A) (A) (A) (A) (A) (A)
                 (A) (A) (A) (A) (A) (A) (A) (A) (A) (A) (A) (A)
                 (A) (A) (A) (A) (A) (A) (A) (A) (A) (A) (A) (A)
                 (A) (A) (A) (A) (A) (A) (A) (A) (A) (A) (A) (A)
                 (A) (A) (A) (A) (A) (A) (A) (A) (A) (A) (A) (A)
                 (A) (A) (A) (A) (A) (A) (A)
 The electronic state is 1-A.
 Alpha  occ. eigenvalues --  -14.63362 -10.40718 -10.40718 -10.40717  -1.20549
 Alpha  occ. eigenvalues --   -0.93608  -0.93605  -0.86556  -0.75576  -0.69826
 Alpha  occ. eigenvalues --   -0.69824  -0.61931  -0.61927  -0.59599  -0.59424
 Alpha  occ. eigenvalues --   -0.59423  -0.59208
 Alpha virt. eigenvalues --   -0.17065  -0.11402  -0.10158  -0.09157  -0.09156
 Alpha virt. eigenvalues --   -0.08103  -0.08102  -0.06545  -0.02691  -0.02690
 Alpha virt. eigenvalues --   -0.01737  -0.01733  -0.00191   0.06950   0.06954
 Alpha virt. eigenvalues --    0.12236   0.14160   0.14162   0.21556   0.25287
 Alpha virt. eigenvalues --    0.25291   0.25297   0.26270   0.36534   0.36540
 Alpha virt. eigenvalues --    0.36893   0.38659   0.38661   0.41271   0.42177
 Alpha virt. eigenvalues --    0.43977   0.43981   0.44550   0.48222   0.48224
 Alpha virt. eigenvalues --    0.48907   0.71832   0.71858   0.78551   0.78580
 Alpha virt. eigenvalues --    0.95933   1.00558   1.00564   1.14287   1.19200
 Alpha virt. eigenvalues --    1.20321   1.20334   1.23222   1.23228   1.24178
 Alpha virt. eigenvalues --    1.27427   1.27430   1.29566   1.30557   1.30561
 Alpha virt. eigenvalues --    1.32462   1.42961   1.42971   1.43031   1.50976
 Alpha virt. eigenvalues --    1.53845   1.53859   1.56813   1.56829   1.60255
 Alpha virt. eigenvalues --    1.64336   1.75306   1.75322   1.83588   1.85679
 Alpha virt. eigenvalues --    1.85702   1.89962   1.89976   1.94350   1.96460
 Alpha virt. eigenvalues --    2.09338   2.09345   2.14745   2.16148   2.23147
 Alpha virt. eigenvalues --    2.23156   2.26395   2.26399   2.27910   2.33274
 Alpha virt. eigenvalues --    2.34300   2.34310   2.38485   2.38486   2.42520
 Alpha virt. eigenvalues --    2.42525   2.46387   2.46730   2.58259   2.58265
 Alpha virt. eigenvalues --    2.65052   2.79165   2.79172   2.95174   3.15107
 Alpha virt. eigenvalues --    3.15111   3.38016   3.55460   3.56766   3.56770
 Alpha virt. eigenvalues --    3.59139   3.59141   3.61099   4.42723   4.52145
 Alpha virt. eigenvalues --    4.52161  23.64609  23.67972  23.67976  35.21316
          Condensed to atoms (all electrons):
               1          2          3          4          5          6
     1  C    4.885450   0.399831   0.399838   0.406762  -0.060398  -0.004317
     2  H    0.399831   0.473919  -0.016926  -0.018158   0.005352   0.000094
     3  H    0.399838  -0.016926   0.473882  -0.018155  -0.004314   0.004132
     4  H    0.406762  -0.018158  -0.018155   0.471250  -0.003744  -0.001190
     5  C   -0.060398   0.005352  -0.004314  -0.003744   4.885451   0.399833
     6  H   -0.004317   0.000094   0.004132  -0.001190   0.399833   0.473882
     7  H    0.005352  -0.000321   0.000095  -0.000013   0.399840  -0.016922
     8  H   -0.003739  -0.000012  -0.001192   0.004681   0.406744  -0.018160
     9  C   -0.060451  -0.004316   0.005352  -0.003749  -0.060398   0.005352
    10  H   -0.003742  -0.001195  -0.000012   0.004687  -0.003732  -0.000014
    11  H    0.005352   0.000095  -0.000321  -0.000013  -0.004326   0.000096
    12  H   -0.004320   0.004137   0.000094  -0.001191   0.005353  -0.000322
    13  N    0.255846  -0.017054  -0.017055  -0.026994   0.255877  -0.017051
    14  H   -0.030396  -0.004167  -0.004163   0.005526  -0.030399  -0.004173
               7          8          9         10         11         12
     1  C    0.005352  -0.003739  -0.060451  -0.003742   0.005352  -0.004320
     2  H   -0.000321  -0.000012  -0.004316  -0.001195   0.000095   0.004137
     3  H    0.000095  -0.001192   0.005352  -0.000012  -0.000321   0.000094
     4  H   -0.000013   0.004681  -0.003749   0.004687  -0.000013  -0.001191
     5  C    0.399840   0.406744  -0.060398  -0.003732  -0.004326   0.005353
     6  H   -0.016922  -0.018160   0.005352  -0.000014   0.000096  -0.000322
     7  H    0.473893  -0.018158  -0.004332  -0.001189   0.004139   0.000096
     8  H   -0.018158   0.471250  -0.003727   0.004670  -0.001191  -0.000014
     9  C   -0.004332  -0.003727   4.885426   0.406758   0.399845   0.399828
    10  H   -0.001189   0.004670   0.406758   0.471254  -0.018157  -0.018156
    11  H    0.004139  -0.001191   0.399845  -0.018157   0.473901  -0.016925
    12  H    0.000096  -0.000014   0.399828  -0.018156  -0.016925   0.473926
    13  N   -0.017057  -0.026990   0.255846  -0.027002  -0.017062  -0.017047
    14  H   -0.004160   0.005525  -0.030398   0.005527  -0.004155  -0.004178
              13         14
     1  C    0.255846  -0.030396
     2  H   -0.017054  -0.004167
     3  H   -0.017055  -0.004163
     4  H   -0.026994   0.005526
     5  C    0.255877  -0.030399
     6  H   -0.017051  -0.004173
     7  H   -0.017057  -0.004160
     8  H   -0.026990   0.005525
     9  C    0.255846  -0.030398
    10  H   -0.027002   0.005527
    11  H   -0.017062  -0.004155
    12  H   -0.017047  -0.004178
    13  N    6.402301   0.346388
    14  H    0.346388   0.460358
 Mulliken charges:
               1
     1  C   -0.191068
     2  H    0.178721
     3  H    0.178746
     4  H    0.180300
     5  C   -0.191138
     6  H    0.178758
     7  H    0.178739
     8  H    0.180313
     9  C   -0.191035
    10  H    0.180302
    11  H    0.178723
    12  H    0.178719
    13  N   -0.332947
    14  H    0.292865
 Sum of Mulliken charges =   1.00000
 Mulliken charges with hydrogens summed into heavy atoms:
               1
     1  C    0.346700
     5  C    0.346672
     9  C    0.346710
    13  N   -0.040082
 Electronic spatial extent (au):  <R**2>=            325.2782
 Charge=              1.0000 electrons
 Dipole moment (field-independent basis, Debye):
    X=              0.0000    Y=              0.0001    Z=              0.8683  Tot=              0.8683
 Quadrupole moment (field-independent basis, Debye-Ang):
   XX=            -19.4442   YY=            -19.4460   ZZ=            -21.8839
   XY=             -0.0001   XZ=              0.0000   YZ=             -0.0002
 Traceless Quadrupole moment (field-independent basis, Debye-Ang):
   XX=              0.8139   YY=              0.8120   ZZ=             -1.6259
   XY=             -0.0001   XZ=              0.0000   YZ=             -0.0002
 Octapole moment (field-independent basis, Debye-Ang**2):
  XXX=              1.9356  YYY=             -0.0470  ZZZ=              1.6267  XYY=             -1.9298
  XXY=              0.0450  XXZ=              1.2339  XZZ=             -0.0026  YZZ=              0.0033
  YYZ=              1.2335  XYZ=              0.0010
 Hexadecapole moment (field-independent basis, Debye-Ang**3):
 XXXX=           -160.4256 YYYY=           -160.3825 ZZZZ=            -42.3365 XXXY=              0.0008
 XXXZ=             -2.7225 YYYX=             -0.0087 YYYZ=              0.0686 ZZZX=              0.0022
 ZZZY=             -0.0030 XXYY=            -53.4679 XXZZ=            -38.0113 YYZZ=            -38.0185
 XXYZ=             -0.0645 YYXZ=              2.7184 ZZXY=              0.0070
 N-N= 1.459048121263D+02 E-N=-6.889926070987D+02  KE= 1.740500267379D+02
 ******************************Gaussian NBO Version 3.1******************************
             N A T U R A L   A T O M I C   O R B I T A L   A N D
          N A T U R A L   B O N D   O R B I T A L   A N A L Y S I S
 ******************************Gaussian NBO Version 3.1******************************
       /RESON  / : Allow strongly delocalized NBO set

 Analyzing the SCF density

 Job title: Title                                                           

 Storage needed:     53006 in NPA (  33553312 available)


 NATURAL POPULATIONS:  Natural atomic orbital occupancies 
                                                          
   NAO  Atom  No  lang   Type(AO)    Occupancy      Energy
 ----------------------------------------------------------
     1    C    1  S      Cor( 1S)     1.99924     -10.27625
     2    C    1  S      Val( 2S)     1.09205      -0.46641
     3    C    1  S      Ryd( 3S)     0.00187       0.81021
     4    C    1  S      Ryd( 4S)     0.00000      23.19232
     5    C    1  px     Val( 2p)     1.12709      -0.30715
     6    C    1  px     Ryd( 3p)     0.00343       0.45336
     7    C    1  px     Ryd( 4p)     0.00003       2.82514
     8    C    1  py     Val( 2p)     0.91979      -0.29341
     9    C    1  py     Ryd( 3p)     0.00322       0.41798
    10    C    1  py     Ryd( 4p)     0.00008       2.78816
    11    C    1  pz     Val( 2p)     1.19344      -0.31383
    12    C    1  pz     Ryd( 3p)     0.00211       0.34729
    13    C    1  pz     Ryd( 4p)     0.00002       2.83018
    14    C    1  dxy    Ryd( 3d)     0.00108       1.85232
    15    C    1  dxz    Ryd( 3d)     0.00060       1.72088
    16    C    1  dyz    Ryd( 3d)     0.00053       1.70085
    17    C    1  dx2y2  Ryd( 3d)     0.00082       1.83560
    18    C    1  dz2    Ryd( 3d)     0.00121       1.98977

    19    H    2  S      Val( 1S)     0.77313      -0.15508
    20    H    2  S      Ryd( 2S)     0.00075       0.31850
    21    H    2  S      Ryd( 3S)     0.00014       1.82011
    22    H    2  px     Ryd( 2p)     0.00036       2.37088
    23    H    2  py     Ryd( 2p)     0.00009       1.52411
    24    H    2  pz     Ryd( 2p)     0.00009       1.68135

    25    H    3  S      Val( 1S)     0.77311      -0.15507
    26    H    3  S      Ryd( 2S)     0.00075       0.31836
    27    H    3  S      Ryd( 3S)     0.00014       1.82019
    28    H    3  px     Ryd( 2p)     0.00011       1.74884
    29    H    3  py     Ryd( 2p)     0.00034       2.14619
    30    H    3  pz     Ryd( 2p)     0.00009       1.68127

    31    H    4  S      Val( 1S)     0.77689      -0.15914
    32    H    4  S      Ryd( 2S)     0.00109       0.39141
    33    H    4  S      Ryd( 3S)     0.00014       1.78138
    34    H    4  px     Ryd( 2p)     0.00008       1.58435
    35    H    4  py     Ryd( 2p)     0.00009       1.53135
    36    H    4  pz     Ryd( 2p)     0.00037       2.50154

    37    C    5  S      Cor( 1S)     1.99924     -10.27625
    38    C    5  S      Val( 2S)     1.09203      -0.46640
    39    C    5  S      Ryd( 3S)     0.00187       0.81017
    40    C    5  S      Ryd( 4S)     0.00000      23.19234
    41    C    5  px     Val( 2p)     0.81017      -0.28615
    42    C    5  px     Ryd( 3p)     0.00311       0.39908
    43    C    5  px     Ryd( 4p)     0.00010       2.76866
    44    C    5  py     Val( 2p)     1.23673      -0.31442
    45    C    5  py     Ryd( 3p)     0.00354       0.47204
    46    C    5  py     Ryd( 4p)     0.00000       2.84470
    47    C    5  pz     Val( 2p)     1.19348      -0.31383
    48    C    5  pz     Ryd( 3p)     0.00211       0.34731
    49    C    5  pz     Ryd( 4p)     0.00002       2.83021
    50    C    5  dxy    Ryd( 3d)     0.00071       1.82808
    51    C    5  dxz    Ryd( 3d)     0.00049       1.69038
    52    C    5  dyz    Ryd( 3d)     0.00064       1.73158
    53    C    5  dx2y2  Ryd( 3d)     0.00119       1.85972
    54    C    5  dz2    Ryd( 3d)     0.00121       1.98972

    55    H    6  S      Val( 1S)     0.77312      -0.15508
    56    H    6  S      Ryd( 2S)     0.00075       0.31833
    57    H    6  S      Ryd( 3S)     0.00014       1.82028
    58    H    6  px     Ryd( 2p)     0.00021       1.71091
    59    H    6  py     Ryd( 2p)     0.00024       2.18378
    60    H    6  pz     Ryd( 2p)     0.00009       1.68182

    61    H    7  S      Val( 1S)     0.77312      -0.15508
    62    H    7  S      Ryd( 2S)     0.00075       0.31844
    63    H    7  S      Ryd( 3S)     0.00014       1.82020
    64    H    7  px     Ryd( 2p)     0.00021       1.72172
    65    H    7  py     Ryd( 2p)     0.00024       2.17362
    66    H    7  pz     Ryd( 2p)     0.00009       1.68099

    67    H    8  S      Val( 1S)     0.77685      -0.15912
    68    H    8  S      Ryd( 2S)     0.00109       0.39134
    69    H    8  S      Ryd( 3S)     0.00014       1.78135
    70    H    8  px     Ryd( 2p)     0.00010       1.50323
    71    H    8  py     Ryd( 2p)     0.00007       1.61234
    72    H    8  pz     Ryd( 2p)     0.00037       2.50143

    73    C    9  S      Cor( 1S)     1.99924     -10.27625
    74    C    9  S      Val( 2S)     1.09206      -0.46641
    75    C    9  S      Ryd( 3S)     0.00187       0.81032
    76    C    9  S      Ryd( 4S)     0.00000      23.19228
    77    C    9  px     Val( 2p)     1.13291      -0.30754
    78    C    9  px     Ryd( 3p)     0.00343       0.45426
    79    C    9  px     Ryd( 4p)     0.00003       2.82617
    80    C    9  py     Val( 2p)     0.91394      -0.29302
    81    C    9  py     Ryd( 3p)     0.00322       0.41703
    82    C    9  py     Ryd( 4p)     0.00008       2.78711
    83    C    9  pz     Val( 2p)     1.19345      -0.31383
    84    C    9  pz     Ryd( 3p)     0.00211       0.34730
    85    C    9  pz     Ryd( 4p)     0.00002       2.83020
    86    C    9  dxy    Ryd( 3d)     0.00107       1.85184
    87    C    9  dxz    Ryd( 3d)     0.00061       1.72203
    88    C    9  dyz    Ryd( 3d)     0.00052       1.69986
    89    C    9  dx2y2  Ryd( 3d)     0.00084       1.83599
    90    C    9  dz2    Ryd( 3d)     0.00121       1.98973

    91    H   10  S      Val( 1S)     0.77688      -0.15913
    92    H   10  S      Ryd( 2S)     0.00109       0.39146
    93    H   10  S      Ryd( 3S)     0.00014       1.78128
    94    H   10  px     Ryd( 2p)     0.00008       1.58596
    95    H   10  py     Ryd( 2p)     0.00009       1.52965
    96    H   10  pz     Ryd( 2p)     0.00037       2.50145

    97    H   11  S      Val( 1S)     0.77313      -0.15507
    98    H   11  S      Ryd( 2S)     0.00075       0.31844
    99    H   11  S      Ryd( 3S)     0.00014       1.82015
   100    H   11  px     Ryd( 2p)     0.00011       1.76133
   101    H   11  py     Ryd( 2p)     0.00034       2.13421
   102    H   11  pz     Ryd( 2p)     0.00009       1.68067

   103    H   12  S      Val( 1S)     0.77314      -0.15510
   104    H   12  S      Ryd( 2S)     0.00075       0.31843
   105    H   12  S      Ryd( 3S)     0.00014       1.82022
   106    H   12  px     Ryd( 2p)     0.00036       2.37091
   107    H   12  py     Ryd( 2p)     0.00009       1.52356
   108    H   12  pz     Ryd( 2p)     0.00009       1.68209

   109    N   13  S      Cor( 1S)     1.99943     -14.47178
   110    N   13  S      Val( 2S)     1.29042      -0.84060
   111    N   13  S      Ryd( 3S)     0.00035       1.79055
   112    N   13  S      Ryd( 4S)     0.00000      34.52925
   113    N   13  px     Val( 2p)     1.34234      -0.51185
   114    N   13  px     Ryd( 3p)     0.00021       0.54955
   115    N   13  px     Ryd( 4p)     0.00001       3.88768
   116    N   13  py     Val( 2p)     1.34235      -0.51184
   117    N   13  py     Ryd( 3p)     0.00021       0.54961
   118    N   13  py     Ryd( 4p)     0.00001       3.88755
   119    N   13  pz     Val( 2p)     1.42238      -0.50728
   120    N   13  pz     Ryd( 3p)     0.00079       0.53097
   121    N   13  pz     Ryd( 4p)     0.00001       3.89008
   122    N   13  dxy    Ryd( 3d)     0.00088       2.37512
   123    N   13  dxz    Ryd( 3d)     0.00036       2.14676
   124    N   13  dyz    Ryd( 3d)     0.00036       2.14664
   125    N   13  dx2y2  Ryd( 3d)     0.00088       2.37493
   126    N   13  dz2    Ryd( 3d)     0.00155       2.61504

   127    H   14  S      Val( 1S)     0.57160      -0.13471
   128    H   14  S      Ryd( 2S)     0.00154       0.41030
   129    H   14  S      Ryd( 3S)     0.00025       1.78757
   130    H   14  px     Ryd( 2p)     0.00022       1.55413
   131    H   14  py     Ryd( 2p)     0.00022       1.55395
   132    H   14  pz     Ryd( 2p)     0.00054       2.41104


 Summary of Natural Population Analysis:                  
                                                          
                                       Natural Population 
                Natural  -----------------------------------------------
    Atom  No    Charge         Core      Valence    Rydberg      Total
 -----------------------------------------------------------------------
      C    1   -0.34662      1.99924     4.33237    0.01501     6.34662
      H    2    0.22545      0.00000     0.77313    0.00143     0.77455
      H    3    0.22546      0.00000     0.77311    0.00142     0.77454
      H    4    0.22134      0.00000     0.77689    0.00177     0.77866
      C    5   -0.34666      1.99924     4.33241    0.01501     6.34666
      H    6    0.22546      0.00000     0.77312    0.00142     0.77454
      H    7    0.22545      0.00000     0.77312    0.00143     0.77455
      H    8    0.22137      0.00000     0.77685    0.00177     0.77863
      C    9   -0.34660      1.99924     4.33235    0.01501     6.34660
      H   10    0.22135      0.00000     0.77688    0.00177     0.77865
      H   11    0.22545      0.00000     0.77313    0.00143     0.77455
      H   12    0.22544      0.00000     0.77314    0.00143     0.77456
      N   13   -0.40253      1.99943     5.39749    0.00561     7.40253
      H   14    0.42563      0.00000     0.57160    0.00277     0.57437
 =======================================================================
   * Total *    1.00000      7.99716    25.93558    0.06726    34.00000

                                 Natural Population      
 --------------------------------------------------------
   Core                       7.99716 ( 99.9645% of   8)
   Valence                   25.93558 ( 99.7522% of  26)
   Natural Minimal Basis     33.93274 ( 99.8022% of  34)
   Natural Rydberg Basis      0.06726 (  0.1978% of  34)
 --------------------------------------------------------

    Atom  No          Natural Electron Configuration
 ----------------------------------------------------------------------------
      C    1      [core]2S( 1.09)2p( 3.24)3p( 0.01)
      H    2            1S( 0.77)
      H    3            1S( 0.77)
      H    4            1S( 0.78)
      C    5      [core]2S( 1.09)2p( 3.24)3p( 0.01)
      H    6            1S( 0.77)
      H    7            1S( 0.77)
      H    8            1S( 0.78)
      C    9      [core]2S( 1.09)2p( 3.24)3p( 0.01)
      H   10            1S( 0.78)
      H   11            1S( 0.77)
      H   12            1S( 0.77)
      N   13      [core]2S( 1.29)2p( 4.11)
      H   14            1S( 0.57)


 NBO analysis skipped by request.
 1\1\GINC-CH-NETTLE\SP\RB3LYP\6-311G(d,p)\C3H10N1(1+)\JS4811\14-Mar-201
 6\0\\# B3LYP/6-311G(d,p) Geom=Check Guess=Read Pop=NPA\\Title\\1,1\C,0
 ,0.0154695967,0.014652685,0.0108394207\H,0,0.0156445957,-0.0062322017,
 1.0991887869\H,0,1.0364429751,-0.0059751278,-0.3661616396\H,0,-0.49905
 4888,0.9048982494,-0.347390092\C,0,-0.6959440369,-1.2711297381,-2.0043
 941792\H,0,0.3388023179,-1.2679204363,-2.3423786325\H,0,-1.1919304337,
 -2.18731393,-2.3199088412\H,0,-1.2225800468,-0.403896931,-2.3995912439
 \C,0,-2.1212416855,-1.2710355801,0.0423246092\H,0,-2.6741723355,-0.403
 4078947,-0.3142000938\H,0,-2.5894895789,-2.1869200853,-0.3137988297\H,
 0,-2.0791248106,-1.2681847775,1.130063958\N,0,-0.718392767,-1.19701259
 01,-0.5004068363\H,0,-0.2186662567,-2.0189862259,-0.152317258\\Version
 =EM64M-G09RevD.01\State=1-A\HF=-174.9008038\RMSD=8.100e-09\Dipole=0.16
 69232,-0.2744769,0.1162223\Quadrupole=0.1710571,-0.5661744,0.3951173,0
 .7114365,-0.3014355,0.495913\PG=C01 [X(C3H10N1)]\\@


 IF I HAVE SEEN FARTHER, IT IS BY STANDING ON THE
 SHOULDERS OF GIANTS. -- SIR ISAAC NEWTON
 Job cpu time:       0 days  0 hours  0 minutes  3.1 seconds.
 File lengths (MBytes):  RWF=     11 Int=      0 D2E=      0 Chk=      3 Scr=      1
 Normal termination of Gaussian 09 at Mon Mar 14 11:13:33 2016.
