    #         X           Y           Z        CHARGE     MIN DIST    ATOMIC VOL
 --------------------------------------------------------------------------------
    1   0.0000000   0.0000000   0.0000000   5.9205442   1.2432297 399.6299864
    2   1.1858210   1.1858210   1.1858210   1.0197046   0.7356285 455.8959775
    3  -1.1858210  -1.1858210   1.1858210   1.0197046   0.7355037 455.8960131
    4  -1.1858210   1.1858210  -1.1858210   1.0197046   0.7355037 455.8960309
    5   1.1858210  -1.1858210  -1.1858210   1.0197046   0.7355037 455.8960664
 --------------------------------------------------------------------------------
    VACUUM CHARGE:               0.0000
    VACUUM VOLUME:               0.0000
    NUMBER OF ELECTRONS:         9.9994
