 Entering Gaussian System, Link 0=g09
 Input=methane.com
 Output=methane.log
 Initial command:
 /Applications/g09/l1.exe "/Users/js4811/Scratch/Gau-3167.inp" -scrdir="/Users/js4811/Scratch/"
 Entering Link 1 = /Applications/g09/l1.exe PID=      3168.
  
 Copyright (c) 1988,1990,1992,1993,1995,1998,2003,2009,2013,
            Gaussian, Inc.  All Rights Reserved.
  
 This is part of the Gaussian(R) 09 program.  It is based on
 the Gaussian(R) 03 system (copyright 2003, Gaussian, Inc.),
 the Gaussian(R) 98 system (copyright 1998, Gaussian, Inc.),
 the Gaussian(R) 94 system (copyright 1995, Gaussian, Inc.),
 the Gaussian 92(TM) system (copyright 1992, Gaussian, Inc.),
 the Gaussian 90(TM) system (copyright 1990, Gaussian, Inc.),
 the Gaussian 88(TM) system (copyright 1988, Gaussian, Inc.),
 the Gaussian 86(TM) system (copyright 1986, Carnegie Mellon
 University), and the Gaussian 82(TM) system (copyright 1983,
 Carnegie Mellon University). Gaussian is a federally registered
 trademark of Gaussian, Inc.
  
 This software contains proprietary and confidential information,
 including trade secrets, belonging to Gaussian, Inc.
  
 This software is provided under written license and may be
 used, copied, transmitted, or stored only in accord with that
 written license.
  
 The following legend is applicable only to US Government
 contracts under FAR:
  
                    RESTRICTED RIGHTS LEGEND
  
 Use, reproduction and disclosure by the US Government is
 subject to restrictions as set forth in subparagraphs (a)
 and (c) of the Commercial Computer Software - Restricted
 Rights clause in FAR 52.227-19.
  
 Gaussian, Inc.
 340 Quinnipiac St., Bldg. 40, Wallingford CT 06492
  
  
 ---------------------------------------------------------------
 Warning -- This program may not be used in any manner that
 competes with the business of Gaussian, Inc. or will provide
 assistance to any competitor of Gaussian, Inc.  The licensee
 of this program is prohibited from giving any competitor of
 Gaussian, Inc. access to this program.  By using this program,
 the user acknowledges that Gaussian, Inc. is engaged in the
 business of creating and licensing software in the field of
 computational chemistry and represents and warrants to the
 licensee that it is not a competitor of Gaussian, Inc. and that
 it will not use this program in any manner prohibited above.
 ---------------------------------------------------------------
  

 Cite this work as:
 Gaussian 09, Revision D.01,
 M. J. Frisch, G. W. Trucks, H. B. Schlegel, G. E. Scuseria, 
 M. A. Robb, J. R. Cheeseman, G. Scalmani, V. Barone, B. Mennucci, 
 G. A. Petersson, H. Nakatsuji, M. Caricato, X. Li, H. P. Hratchian, 
 A. F. Izmaylov, J. Bloino, G. Zheng, J. L. Sonnenberg, M. Hada, 
 M. Ehara, K. Toyota, R. Fukuda, J. Hasegawa, M. Ishida, T. Nakajima, 
 Y. Honda, O. Kitao, H. Nakai, T. Vreven, J. A. Montgomery, Jr., 
 J. E. Peralta, F. Ogliaro, M. Bearpark, J. J. Heyd, E. Brothers, 
 K. N. Kudin, V. N. Staroverov, T. Keith, R. Kobayashi, J. Normand, 
 K. Raghavachari, A. Rendell, J. C. Burant, S. S. Iyengar, J. Tomasi, 
 M. Cossi, N. Rega, J. M. Millam, M. Klene, J. E. Knox, J. B. Cross, 
 V. Bakken, C. Adamo, J. Jaramillo, R. Gomperts, R. E. Stratmann, 
 O. Yazyev, A. J. Austin, R. Cammi, C. Pomelli, J. W. Ochterski, 
 R. L. Martin, K. Morokuma, V. G. Zakrzewski, G. A. Voth, 
 P. Salvador, J. J. Dannenberg, S. Dapprich, A. D. Daniels, 
 O. Farkas, J. B. Foresman, J. V. Ortiz, J. Cioslowski, 
 and D. J. Fox, Gaussian, Inc., Wallingford CT, 2013.
 
 ******************************************
 Gaussian 09:  EM64M-G09RevD.01 24-Apr-2013
                14-Dec-2015 
 ******************************************
 %chk=methane.chk
 --------------------------
 # MP2/6-31+G(d,p) Opt Freq
 --------------------------
 1/18=20,19=15,38=1/1,3;
 2/9=110,12=2,17=6,18=5,40=1/2;
 3/5=1,6=6,7=111,11=9,16=1,25=1,30=1,71=1/1,2,3;
 4//1;
 5/5=2,38=5/2;
 8/6=4,10=2/1;
 9/15=2,16=-3/6;
 10/5=1/2;
 6/7=2,8=2,9=2,10=2/1;
 7/12=2/1,2,3,16;
 1/18=20,19=15/3(2);
 2/9=110/2;
 99//99;
 2/9=110/2;
 3/5=1,6=6,7=111,11=9,16=1,25=1,30=1,71=1/1,2,3;
 4/5=5,16=3,69=1/1;
 5/5=2,38=5/2;
 8/6=4,10=2/1;
 9/15=2,16=-3/6;
 10/5=1/2;
 7/12=2/1,2,3,16;
 1/18=20,19=15/3(-8);
 2/9=110/2;
 6/7=2,8=2,9=2,10=2/1;
 99//99;
 -------
 Methane
 -------
 Symbolic Z-matrix:
 Charge =  0 Multiplicity = 1
 C
 H                    1     1.07 
 H                    1     1.07     2     109.4712 
 H                    1     1.07     3     109.47125  2    -119.99999  0
 H                    1     1.07     3     109.47122  2     120.     0
 
     3 tetrahedral angles replaced.

 GradGradGradGradGradGradGradGradGradGradGradGradGradGradGradGradGradGrad
 Berny optimization.
 Initialization pass.
                           ----------------------------
                           !    Initial Parameters    !
                           ! (Angstroms and Degrees)  !
 --------------------------                            --------------------------
 ! Name  Definition              Value          Derivative Info.                !
 --------------------------------------------------------------------------------
 ! R1    R(1,2)                  1.07           estimate D2E/DX2                !
 ! R2    R(1,3)                  1.07           estimate D2E/DX2                !
 ! R3    R(1,4)                  1.07           estimate D2E/DX2                !
 ! R4    R(1,5)                  1.07           estimate D2E/DX2                !
 ! A1    A(2,1,3)              109.4712         estimate D2E/DX2                !
 ! A2    A(2,1,4)              109.4712         estimate D2E/DX2                !
 ! A3    A(2,1,5)              109.4712         estimate D2E/DX2                !
 ! A4    A(3,1,4)              109.4712         estimate D2E/DX2                !
 ! A5    A(3,1,5)              109.4712         estimate D2E/DX2                !
 ! A6    A(4,1,5)              109.4712         estimate D2E/DX2                !
 ! D1    D(2,1,4,3)           -120.0            estimate D2E/DX2                !
 ! D2    D(2,1,5,3)            120.0            estimate D2E/DX2                !
 ! D3    D(2,1,5,4)           -120.0            estimate D2E/DX2                !
 ! D4    D(3,1,5,4)            120.0            estimate D2E/DX2                !
 --------------------------------------------------------------------------------
 Trust Radius=3.00D-01 FncErr=1.00D-07 GrdErr=1.00D-07
 Number of steps in this run=     24 maximum allowed number of steps=    100.
 GradGradGradGradGradGradGradGradGradGradGradGradGradGradGradGradGradGrad

                          Input orientation:                          
 ---------------------------------------------------------------------
 Center     Atomic      Atomic             Coordinates (Angstroms)
 Number     Number       Type             X           Y           Z
 ---------------------------------------------------------------------
      1          6           0        0.000000    0.000000    0.000000
      2          1           0        0.000000    0.000000    1.070000
      3          1           0        1.008806    0.000000   -0.356667
      4          1           0       -0.504403   -0.873651   -0.356666
      5          1           0       -0.504403    0.873651   -0.356667
 ---------------------------------------------------------------------
                    Distance matrix (angstroms):
                    1          2          3          4          5
     1  C    0.000000
     2  H    1.070000   0.000000
     3  H    1.070000   1.747303   0.000000
     4  H    1.070000   1.747303   1.747303   0.000000
     5  H    1.070000   1.747303   1.747303   1.747303   0.000000
 Stoichiometry    CH4
 Framework group  TD[O(C),4C3(H)]
 Deg. of freedom     1
 Full point group                 TD      NOp  24
 Largest Abelian subgroup         D2      NOp   4
 Largest concise Abelian subgroup D2      NOp   4
                         Standard orientation:                         
 ---------------------------------------------------------------------
 Center     Atomic      Atomic             Coordinates (Angstroms)
 Number     Number       Type             X           Y           Z
 ---------------------------------------------------------------------
      1          6           0        0.000000    0.000000    0.000000
      2          1           0        0.617765    0.617765    0.617765
      3          1           0       -0.617765   -0.617765    0.617765
      4          1           0       -0.617765    0.617765   -0.617765
      5          1           0        0.617765   -0.617765   -0.617765
 ---------------------------------------------------------------------
 Rotational constants (GHZ):    164.2463706    164.2463706    164.2463706
 Standard basis: 6-31+G(d,p) (6D, 7F)
 There are    12 symmetry adapted cartesian basis functions of A   symmetry.
 There are     9 symmetry adapted cartesian basis functions of B1  symmetry.
 There are     9 symmetry adapted cartesian basis functions of B2  symmetry.
 There are     9 symmetry adapted cartesian basis functions of B3  symmetry.
 There are    12 symmetry adapted basis functions of A   symmetry.
 There are     9 symmetry adapted basis functions of B1  symmetry.
 There are     9 symmetry adapted basis functions of B2  symmetry.
 There are     9 symmetry adapted basis functions of B3  symmetry.
    39 basis functions,    60 primitive gaussians,    39 cartesian basis functions
     5 alpha electrons        5 beta electrons
       nuclear repulsion energy        13.6865182256 Hartrees.
 NAtoms=    5 NActive=    5 NUniq=    2 SFac= 4.00D+00 NAtFMM=   60 NAOKFM=F Big=F
 Integral buffers will be    131072 words long.
 Raffenetti 1 integral format.
 Two-electron integral symmetry is turned on.
 One-electron integrals computed using PRISM.
 NBasis=    39 RedAO= T EigKep=  1.20D-02  NBF=    12     9     9     9
 NBsUse=    39 1.00D-06 EigRej= -1.00D+00 NBFU=    12     9     9     9
 ExpMin= 4.38D-02 ExpMax= 3.05D+03 ExpMxC= 4.57D+02 IAcc=2 IRadAn=         4 AccDes= 0.00D+00
 Harris functional with IExCor=  205 and IRadAn=       4 diagonalized for initial guess.
 HarFok:  IExCor=  205 AccDes= 0.00D+00 IRadAn=         4 IDoV= 1 UseB2=F ITyADJ=14
 ICtDFT=  3500011 ScaDFX=  1.000000  1.000000  1.000000  1.000000
 FoFCou: FMM=F IPFlag=           0 FMFlag=      100000 FMFlg1=           0
         NFxFlg=           0 DoJE=T BraDBF=F KetDBF=T FulRan=T
         wScrn=  0.000000 ICntrl=     500 IOpCl=  0 I1Cent=   200000004 NGrid=           0
         NMat0=    1 NMatS0=      1 NMatT0=    0 NMatD0=    1 NMtDS0=    0 NMtDT0=    0
 Petite list used in FoFCou.
 Initial guess orbital symmetries:
       Occupied  (A1) (A1) (T2) (T2) (T2)
       Virtual   (A1) (T2) (T2) (T2) (T2) (T2) (T2) (A1) (T2) (T2)
                 (T2) (T2) (T2) (T2) (A1) (A1) (E) (E) (T1) (T1)
                 (T1) (T2) (T2) (T2) (T2) (T2) (T2) (E) (E) (A1)
                 (T2) (T2) (T2) (A1)
 The electronic state of the initial guess is 1-A1.
 Keep R1 ints in memory in symmetry-blocked form, NReq=1165467.
 Requested convergence on RMS density matrix=1.00D-08 within 128 cycles.
 Requested convergence on MAX density matrix=1.00D-06.
 Requested convergence on             energy=1.00D-06.
 No special actions if energy rises.
 SCF Done:  E(RHF) =  -40.2015926964     A.U. after    8 cycles
            NFock=  8  Conv=0.25D-08     -V/T= 1.9986
 ExpMin= 4.38D-02 ExpMax= 3.05D+03 ExpMxC= 4.57D+02 IAcc=3 IRadAn=         5 AccDes= 0.00D+00
 HarFok:  IExCor=  205 AccDes= 0.00D+00 IRadAn=         5 IDoV=-2 UseB2=F ITyADJ=14
 ICtDFT= 12500011 ScaDFX=  1.000000  1.000000  1.000000  1.000000
 Range of M.O.s used for correlation:     2    39
 NBasis=    39 NAE=     5 NBE=     5 NFC=     1 NFV=     0
 NROrb=     38 NOA=     4 NOB=     4 NVA=    34 NVB=    34
 Fully direct method using O(ONN) memory.
 JobTyp=1 Pass  1:  I=   2 to   5 NPSUse=  1 ParTrn=F ParDer=F DoDerP=T.
 Spin components of T(2) and E(2):
     alpha-alpha T2 =       0.4892602119D-02 E2=     -0.1503526927D-01
     alpha-beta  T2 =       0.4077219586D-01 E2=     -0.1335690206D+00
     beta-beta   T2 =       0.4892602119D-02 E2=     -0.1503526927D-01
 ANorm=    0.1024967024D+01
 E2 =    -0.1636395592D+00 EUMP2 =    -0.40365232255617D+02
          IDoAtm=11111
          Differentiating once with respect to electric field.
                with respect to dipole field.
          Differentiating once with respect to nuclear coordinates.
 Keep R1 ints in memory in symmetry-blocked form, NReq=1149378.
          There are     1 degrees of freedom in the 1st order CPHF.  IDoFFX=0 NUNeed=     1.
 LinEq1:  Iter=  0 NonCon=     1 RMS=4.14D-03 Max=1.45D-02 NDo=     1
 AX will form     1 AO Fock derivatives at one time.
 LinEq1:  Iter=  1 NonCon=     1 RMS=1.45D-03 Max=7.90D-03 NDo=     1
 LinEq1:  Iter=  2 NonCon=     1 RMS=1.86D-04 Max=1.08D-03 NDo=     1
 LinEq1:  Iter=  3 NonCon=     1 RMS=1.25D-05 Max=7.15D-05 NDo=     1
 LinEq1:  Iter=  4 NonCon=     1 RMS=7.70D-07 Max=3.96D-06 NDo=     1
 LinEq1:  Iter=  5 NonCon=     1 RMS=4.84D-08 Max=2.58D-07 NDo=     1
 LinEq1:  Iter=  6 NonCon=     1 RMS=2.28D-09 Max=1.25D-08 NDo=     1
 LinEq1:  Iter=  7 NonCon=     1 RMS=1.88D-10 Max=1.06D-09 NDo=     1
 LinEq1:  Iter=  8 NonCon=     0 RMS=8.04D-12 Max=4.57D-11 NDo=     1
 Linear equations converged to 1.000D-10 1.000D-09 after     8 iterations.
 End of Minotr F.D. properties file   721 does not exist.
 End of Minotr F.D. properties file   722 does not exist.
 End of Minotr F.D. properties file   788 does not exist.

 **********************************************************************

            Population analysis using the SCF density.

 **********************************************************************

 Orbital symmetries:
       Occupied  (A1) (A1) (T2) (T2) (T2)
       Virtual   (A1) (T2) (T2) (T2) (T2) (T2) (T2) (A1) (T2) (T2)
                 (T2) (T2) (T2) (T2) (A1) (A1) (E) (E) (T1) (T1)
                 (T1) (T2) (T2) (T2) (T2) (T2) (T2) (E) (E) (A1)
                 (T2) (T2) (T2) (A1)
 The electronic state is 1-A1.
 Alpha  occ. eigenvalues --  -11.20105  -0.95226  -0.54998  -0.54998  -0.54998
 Alpha virt. eigenvalues --    0.09241   0.12192   0.12192   0.12192   0.33865
 Alpha virt. eigenvalues --    0.33865   0.33865   0.42202   0.84460   0.84460
 Alpha virt. eigenvalues --    0.84460   1.18081   1.18081   1.18081   1.31922
 Alpha virt. eigenvalues --    1.37490   1.62624   1.62624   2.35882   2.35882
 Alpha virt. eigenvalues --    2.35882   2.43851   2.43851   2.43851   2.98481
 Alpha virt. eigenvalues --    2.98481   2.98481   3.29941   3.29941   3.59971
 Alpha virt. eigenvalues --    3.84217   3.84217   3.84217   4.84806
          Condensed to atoms (all electrons):
               1          2          3          4          5
     1  C    4.917905   0.401370   0.401370   0.401370   0.401370
     2  H    0.401370   0.548645  -0.026954  -0.026954  -0.026954
     3  H    0.401370  -0.026954   0.548645  -0.026954  -0.026954
     4  H    0.401370  -0.026954  -0.026954   0.548645  -0.026954
     5  H    0.401370  -0.026954  -0.026954  -0.026954   0.548645
 Mulliken charges:
               1
     1  C   -0.523383
     2  H    0.130846
     3  H    0.130846
     4  H    0.130846
     5  H    0.130846
 Sum of Mulliken charges =   0.00000
 Mulliken charges with hydrogens summed into heavy atoms:
               1
     1  C    0.000000
 Electronic spatial extent (au):  <R**2>=             35.1094
 Charge=              0.0000 electrons
 Dipole moment (field-independent basis, Debye):
    X=              0.0000    Y=              0.0000    Z=              0.0000  Tot=              0.0000
 Quadrupole moment (field-independent basis, Debye-Ang):
   XX=             -8.4089   YY=             -8.4089   ZZ=             -8.4089
   XY=              0.0000   XZ=              0.0000   YZ=              0.0000
 Traceless Quadrupole moment (field-independent basis, Debye-Ang):
   XX=              0.0000   YY=              0.0000   ZZ=              0.0000
   XY=              0.0000   XZ=              0.0000   YZ=              0.0000
 Octapole moment (field-independent basis, Debye-Ang**2):
  XXX=              0.0000  YYY=              0.0000  ZZZ=              0.0000  XYY=              0.0000
  XXY=              0.0000  XXZ=              0.0000  XZZ=              0.0000  YZZ=              0.0000
  YYZ=              0.0000  XYZ=              0.6249
 Hexadecapole moment (field-independent basis, Debye-Ang**3):
 XXXX=            -16.1692 YYYY=            -16.1692 ZZZZ=            -16.1692 XXXY=              0.0000
 XXXZ=              0.0000 YYYX=              0.0000 YYYZ=              0.0000 ZZZX=              0.0000
 ZZZY=              0.0000 XXYY=             -4.9527 XXZZ=             -4.9527 YYZZ=             -4.9527
 XXYZ=              0.0000 YYXZ=              0.0000 ZZXY=              0.0000
 N-N= 1.368651822561D+01 E-N=-1.204271213600D+02  KE= 4.025740030217D+01
 Symmetry A    KE= 3.449416672502D+01
 Symmetry B1   KE= 1.921077859050D+00
 Symmetry B2   KE= 1.921077859050D+00
 Symmetry B3   KE= 1.921077859050D+00
 Calling FoFJK, ICntrl=  10002127 FMM=F ISym2X=1 I1Cent= 0 IOpClX= 0 NMat=1 NMatS=1 NMatT=0.
 ***** Axes restored to original set *****
 -------------------------------------------------------------------
 Center     Atomic                   Forces (Hartrees/Bohr)
 Number     Number              X              Y              Z
 -------------------------------------------------------------------
      1        6           0.000000000    0.000000000    0.000000000
      2        1           0.000000000    0.000000000    0.011923009
      3        1           0.011241121   -0.000000001   -0.003974336
      4        1          -0.005620561   -0.009735096   -0.003974336
      5        1          -0.005620560    0.009735096   -0.003974336
 -------------------------------------------------------------------
 Cartesian Forces:  Max     0.011923009 RMS     0.006157015

 GradGradGradGradGradGradGradGradGradGradGradGradGradGradGradGradGradGrad
 Berny optimization.
 FormGI is forming the generalized inverse of G from B-inverse, IUseBI=4.
 Internal  Forces:  Max     0.011923009 RMS     0.006373116
 Search for a local minimum.
 Step number   1 out of a maximum of   24
 All quantities printed in internal units (Hartrees-Bohrs-Radians)
 Mixed Optimization -- RFO/linear search
 Second derivative matrix not updated -- first step.
 The second derivative matrix:
                          R1        R2        R3        R4        A1
           R1           0.37230
           R2           0.00000   0.37230
           R3           0.00000   0.00000   0.37230
           R4           0.00000   0.00000   0.00000   0.37230
           A1           0.00000   0.00000   0.00000   0.00000   0.16000
           A2           0.00000   0.00000   0.00000   0.00000   0.00000
           A3           0.00000   0.00000   0.00000   0.00000   0.00000
           A4           0.00000   0.00000   0.00000   0.00000   0.00000
           A5           0.00000   0.00000   0.00000   0.00000   0.00000
           A6           0.00000   0.00000   0.00000   0.00000   0.00000
           D1           0.00000   0.00000   0.00000   0.00000   0.00000
           D2           0.00000   0.00000   0.00000   0.00000   0.00000
           D3           0.00000   0.00000   0.00000   0.00000   0.00000
           D4           0.00000   0.00000   0.00000   0.00000   0.00000
                          A2        A3        A4        A5        A6
           A2           0.16000
           A3           0.00000   0.16000
           A4           0.00000   0.00000   0.16000
           A5           0.00000   0.00000   0.00000   0.16000
           A6           0.00000   0.00000   0.00000   0.00000   0.16000
           D1           0.00000   0.00000   0.00000   0.00000   0.00000
           D2           0.00000   0.00000   0.00000   0.00000   0.00000
           D3           0.00000   0.00000   0.00000   0.00000   0.00000
           D4           0.00000   0.00000   0.00000   0.00000   0.00000
                          D1        D2        D3        D4
           D1           0.00499
           D2           0.00000   0.00499
           D3           0.00000   0.00000   0.00499
           D4           0.00000   0.00000   0.00000   0.00499
 ITU=  0
     Eigenvalues ---    0.05269   0.05891   0.08766   0.16000   0.16000
     Eigenvalues ---    0.37230   0.37230   0.37230   0.37230
 RFO step:  Lambda=-1.52113121D-03 EMin= 5.26880984D-02
 Linear search not attempted -- first point.
 Iteration  1 RMS(Cart)=  0.01704852 RMS(Int)=  0.00000000
 Iteration  2 RMS(Cart)=  0.00000000 RMS(Int)=  0.00000000
 ClnCor:  largest displacement from symmetrization is 3.32D-14 for atom     3.
 Variable       Old X    -DE/DX   Delta X   Delta X   Delta X     New X
                                 (Linear)    (Quad)   (Total)
    R1        2.02201   0.01192   0.00000   0.03189   0.03189   2.05390
    R2        2.02201   0.01192   0.00000   0.03189   0.03189   2.05390
    R3        2.02201   0.01192   0.00000   0.03189   0.03189   2.05390
    R4        2.02201   0.01192   0.00000   0.03189   0.03189   2.05390
    A1        1.91063   0.00000   0.00000   0.00000   0.00000   1.91063
    A2        1.91063   0.00000   0.00000   0.00000   0.00000   1.91063
    A3        1.91063   0.00000   0.00000   0.00000   0.00000   1.91063
    A4        1.91063   0.00000   0.00000   0.00000   0.00000   1.91063
    A5        1.91063   0.00000   0.00000   0.00000   0.00000   1.91063
    A6        1.91063   0.00000   0.00000   0.00000   0.00000   1.91063
    D1       -2.09440   0.00000   0.00000   0.00000   0.00000  -2.09440
    D2        2.09440   0.00000   0.00000   0.00000   0.00000   2.09440
    D3       -2.09440   0.00000   0.00000   0.00000   0.00000  -2.09440
    D4        2.09440   0.00000   0.00000   0.00000   0.00000   2.09440
         Item               Value     Threshold  Converged?
 Maximum Force            0.011923     0.000450     NO 
 RMS     Force            0.006373     0.000300     NO 
 Maximum Displacement     0.031895     0.001800     NO 
 RMS     Displacement     0.017049     0.001200     NO 
 Predicted change in Energy=-7.636604D-04
 GradGradGradGradGradGradGradGradGradGradGradGradGradGradGradGradGradGrad

                          Input orientation:                          
 ---------------------------------------------------------------------
 Center     Atomic      Atomic             Coordinates (Angstroms)
 Number     Number       Type             X           Y           Z
 ---------------------------------------------------------------------
      1          6           0        0.000000    0.000000    0.000000
      2          1           0        0.000000    0.000000    1.086878
      3          1           0        1.024718    0.000000   -0.362293
      4          1           0       -0.512359   -0.887432   -0.362293
      5          1           0       -0.512359    0.887432   -0.362293
 ---------------------------------------------------------------------
                    Distance matrix (angstroms):
                    1          2          3          4          5
     1  C    0.000000
     2  H    1.086878   0.000000
     3  H    1.086878   1.774864   0.000000
     4  H    1.086878   1.774864   1.774864   0.000000
     5  H    1.086878   1.774864   1.774864   1.774864   0.000000
 Stoichiometry    CH4
 Framework group  TD[O(C),4C3(H)]
 Deg. of freedom     1
 Full point group                 TD      NOp  24
 Largest Abelian subgroup         D2      NOp   4
 Largest concise Abelian subgroup D2      NOp   4
                         Standard orientation:                         
 ---------------------------------------------------------------------
 Center     Atomic      Atomic             Coordinates (Angstroms)
 Number     Number       Type             X           Y           Z
 ---------------------------------------------------------------------
      1          6           0        0.000000    0.000000    0.000000
      2          1           0        0.627509    0.627509    0.627509
      3          1           0       -0.627509   -0.627509    0.627509
      4          1           0       -0.627509    0.627509   -0.627509
      5          1           0        0.627509   -0.627509   -0.627509
 ---------------------------------------------------------------------
 Rotational constants (GHZ):    159.1848423    159.1848423    159.1848423
 Standard basis: 6-31+G(d,p) (6D, 7F)
 There are    12 symmetry adapted cartesian basis functions of A   symmetry.
 There are     9 symmetry adapted cartesian basis functions of B1  symmetry.
 There are     9 symmetry adapted cartesian basis functions of B2  symmetry.
 There are     9 symmetry adapted cartesian basis functions of B3  symmetry.
 There are    12 symmetry adapted basis functions of A   symmetry.
 There are     9 symmetry adapted basis functions of B1  symmetry.
 There are     9 symmetry adapted basis functions of B2  symmetry.
 There are     9 symmetry adapted basis functions of B3  symmetry.
    39 basis functions,    60 primitive gaussians,    39 cartesian basis functions
     5 alpha electrons        5 beta electrons
       nuclear repulsion energy        13.4739814476 Hartrees.
 NAtoms=    5 NActive=    5 NUniq=    2 SFac= 4.00D+00 NAtFMM=   60 NAOKFM=F Big=F
 Integral buffers will be    131072 words long.
 Raffenetti 1 integral format.
 Two-electron integral symmetry is turned on.
 One-electron integrals computed using PRISM.
 NBasis=    39 RedAO= T EigKep=  1.27D-02  NBF=    12     9     9     9
 NBsUse=    39 1.00D-06 EigRej= -1.00D+00 NBFU=    12     9     9     9
 Initial guess from the checkpoint file:  "methane.chk"
 B after Tr=     0.000000    0.000000    0.000000
         Rot=    1.000000    0.000000    0.000000    0.000000 Ang=   0.00 deg.
 Initial guess orbital symmetries:
       Occupied  (A1) (A1) (T2) (T2) (T2)
       Virtual   (A1) (A1) (E) (E) (A1) (E) (E) (A1) (A1) (A1)
                 (T2) (T2) (T2) (T2) (T1) (T2) (T2) (T2) (T2) (T2)
                 (T2) (T2) (T1) (T2) (T2) (T2) (T2) (T2) (T2) (T2)
                 (T1) (T2) (T2) (T2)
 ExpMin= 4.38D-02 ExpMax= 3.05D+03 ExpMxC= 4.57D+02 IAcc=2 IRadAn=         4 AccDes= 0.00D+00
 Harris functional with IExCor=  205 and IRadAn=       4 diagonalized for initial guess.
 HarFok:  IExCor=  205 AccDes= 0.00D+00 IRadAn=         4 IDoV= 1 UseB2=F ITyADJ=14
 ICtDFT=  3500011 ScaDFX=  1.000000  1.000000  1.000000  1.000000
 FoFCou: FMM=F IPFlag=           0 FMFlag=      100000 FMFlg1=           0
         NFxFlg=           0 DoJE=T BraDBF=F KetDBF=T FulRan=T
         wScrn=  0.000000 ICntrl=     500 IOpCl=  0 I1Cent=   200000004 NGrid=           0
         NMat0=    1 NMatS0=      1 NMatT0=    0 NMatD0=    1 NMtDS0=    0 NMtDT0=    0
 Petite list used in FoFCou.
 Keep R1 ints in memory in symmetry-blocked form, NReq=1165467.
 Requested convergence on RMS density matrix=1.00D-08 within 128 cycles.
 Requested convergence on MAX density matrix=1.00D-06.
 Requested convergence on             energy=1.00D-06.
 No special actions if energy rises.
 SCF Done:  E(RHF) =  -40.2021062792     A.U. after    7 cycles
            NFock=  7  Conv=0.34D-08     -V/T= 2.0011
 ExpMin= 4.38D-02 ExpMax= 3.05D+03 ExpMxC= 4.57D+02 IAcc=3 IRadAn=         5 AccDes= 0.00D+00
 HarFok:  IExCor=  205 AccDes= 0.00D+00 IRadAn=         5 IDoV=-2 UseB2=F ITyADJ=14
 ICtDFT= 12500011 ScaDFX=  1.000000  1.000000  1.000000  1.000000
 Range of M.O.s used for correlation:     2    39
 NBasis=    39 NAE=     5 NBE=     5 NFC=     1 NFV=     0
 NROrb=     38 NOA=     4 NOB=     4 NVA=    34 NVB=    34
 Fully direct method using O(ONN) memory.
 JobTyp=1 Pass  1:  I=   2 to   5 NPSUse=  1 ParTrn=F ParDer=F DoDerP=T.
 Spin components of T(2) and E(2):
     alpha-alpha T2 =       0.4939288619D-02 E2=     -0.1498527902D-01
     alpha-beta  T2 =       0.4150850763D-01 E2=     -0.1338752614D+00
     beta-beta   T2 =       0.4939288619D-02 E2=     -0.1498527902D-01
 ANorm=    0.1025371681D+01
 E2 =    -0.1638458194D+00 EUMP2 =    -0.40365952098593D+02
          IDoAtm=11111
          Differentiating once with respect to electric field.
                with respect to dipole field.
          Differentiating once with respect to nuclear coordinates.
 Keep R1 ints in memory in symmetry-blocked form, NReq=1149378.
          There are     1 degrees of freedom in the 1st order CPHF.  IDoFFX=0 NUNeed=     1.
 LinEq1:  Iter=  0 NonCon=     1 RMS=4.27D-03 Max=1.59D-02 NDo=     1
 AX will form     1 AO Fock derivatives at one time.
 LinEq1:  Iter=  1 NonCon=     1 RMS=1.52D-03 Max=8.39D-03 NDo=     1
 LinEq1:  Iter=  2 NonCon=     1 RMS=1.88D-04 Max=1.08D-03 NDo=     1
 LinEq1:  Iter=  3 NonCon=     1 RMS=1.29D-05 Max=7.35D-05 NDo=     1
 LinEq1:  Iter=  4 NonCon=     1 RMS=8.05D-07 Max=4.20D-06 NDo=     1
 LinEq1:  Iter=  5 NonCon=     1 RMS=5.05D-08 Max=2.72D-07 NDo=     1
 LinEq1:  Iter=  6 NonCon=     1 RMS=2.45D-09 Max=1.34D-08 NDo=     1
 LinEq1:  Iter=  7 NonCon=     1 RMS=2.02D-10 Max=1.12D-09 NDo=     1
 LinEq1:  Iter=  8 NonCon=     0 RMS=8.55D-12 Max=4.87D-11 NDo=     1
 Linear equations converged to 1.000D-10 1.000D-09 after     8 iterations.
 End of Minotr F.D. properties file   721 does not exist.
 End of Minotr F.D. properties file   722 does not exist.
 End of Minotr F.D. properties file   788 does not exist.
 Calling FoFJK, ICntrl=  10002127 FMM=F ISym2X=1 I1Cent= 0 IOpClX= 0 NMat=1 NMatS=1 NMatT=0.
 ***** Axes restored to original set *****
 -------------------------------------------------------------------
 Center     Atomic                   Forces (Hartrees/Bohr)
 Number     Number              X              Y              Z
 -------------------------------------------------------------------
      1        6           0.000000000    0.000000000    0.000000000
      2        1           0.000000000    0.000000000   -0.000446149
      3        1          -0.000420633    0.000000000    0.000148716
      4        1           0.000210317    0.000364279    0.000148716
      5        1           0.000210317   -0.000364279    0.000148716
 -------------------------------------------------------------------
 Cartesian Forces:  Max     0.000446149 RMS     0.000230390

 GradGradGradGradGradGradGradGradGradGradGradGradGradGradGradGradGradGrad
 Berny optimization.
 Using GEDIIS/GDIIS optimizer.
 FormGI is forming the generalized inverse of G from B-inverse, IUseBI=4.
 Internal  Forces:  Max     0.000446149 RMS     0.000238477
 Search for a local minimum.
 Step number   2 out of a maximum of   24
 All quantities printed in internal units (Hartrees-Bohrs-Radians)
 Mixed Optimization -- En-DIIS/RFO-DIIS
 Update second derivatives using D2CorX and points    1    2
 DE= -7.20D-04 DEPred=-7.64D-04 R= 9.43D-01
 TightC=F SS=  1.41D+00  RLast= 6.38D-02 DXNew= 5.0454D-01 1.9137D-01
 Trust test= 9.43D-01 RLast= 6.38D-02 DXMaxT set to 3.00D-01
 The second derivative matrix:
                          R1        R2        R3        R4        A1
           R1           0.37618
           R2           0.00388   0.37618
           R3           0.00388   0.00388   0.37618
           R4           0.00388   0.00388   0.00388   0.37618
           A1           0.00000   0.00000   0.00000   0.00000   0.16000
           A2           0.00000   0.00000   0.00000   0.00000   0.00000
           A3           0.00000   0.00000   0.00000   0.00000   0.00000
           A4           0.00000   0.00000   0.00000   0.00000   0.00000
           A5           0.00000   0.00000   0.00000   0.00000   0.00000
           A6           0.00000   0.00000   0.00000   0.00000   0.00000
           D1           0.00000   0.00000   0.00000   0.00000   0.00000
           D2           0.00000   0.00000   0.00000   0.00000   0.00000
           D3           0.00000   0.00000   0.00000   0.00000   0.00000
           D4           0.00000   0.00000   0.00000   0.00000   0.00000
                          A2        A3        A4        A5        A6
           A2           0.16000
           A3           0.00000   0.16000
           A4           0.00000   0.00000   0.16000
           A5           0.00000   0.00000   0.00000   0.16000
           A6           0.00000   0.00000   0.00000   0.00000   0.16000
           D1           0.00000   0.00000   0.00000   0.00000   0.00000
           D2           0.00000   0.00000   0.00000   0.00000   0.00000
           D3           0.00000   0.00000   0.00000   0.00000   0.00000
           D4           0.00000   0.00000   0.00000   0.00000   0.00000
                          D1        D2        D3        D4
           D1           0.00499
           D2           0.00000   0.00499
           D3           0.00000   0.00000   0.00499
           D4           0.00000   0.00000   0.00000   0.00499
 ITU=  1  0
 Use linear search instead of GDIIS.
     Eigenvalues ---    0.05269   0.05891   0.08766   0.16000   0.16000
     Eigenvalues ---    0.37230   0.37230   0.37230   0.38781
 RFO step:  Lambda= 0.00000000D+00 EMin= 5.26880984D-02
 Quartic linear search produced a step of -0.03775.
 Iteration  1 RMS(Cart)=  0.00064360 RMS(Int)=  0.00000000
 Iteration  2 RMS(Cart)=  0.00000000 RMS(Int)=  0.00000000
 ClnCor:  largest displacement from symmetrization is 2.96D-14 for atom     2.
 Variable       Old X    -DE/DX   Delta X   Delta X   Delta X     New X
                                 (Linear)    (Quad)   (Total)
    R1        2.05390  -0.00045  -0.00120   0.00000  -0.00120   2.05270
    R2        2.05390  -0.00045  -0.00120   0.00000  -0.00120   2.05270
    R3        2.05390  -0.00045  -0.00120   0.00000  -0.00120   2.05270
    R4        2.05390  -0.00045  -0.00120   0.00000  -0.00120   2.05270
    A1        1.91063   0.00000   0.00000   0.00000   0.00000   1.91063
    A2        1.91063   0.00000   0.00000   0.00000   0.00000   1.91063
    A3        1.91063   0.00000   0.00000   0.00000   0.00000   1.91063
    A4        1.91063   0.00000   0.00000   0.00000   0.00000   1.91063
    A5        1.91063   0.00000   0.00000   0.00000   0.00000   1.91063
    A6        1.91063   0.00000   0.00000   0.00000   0.00000   1.91063
    D1       -2.09440   0.00000   0.00000   0.00000   0.00000  -2.09440
    D2        2.09440   0.00000   0.00000   0.00000   0.00000   2.09440
    D3       -2.09440   0.00000   0.00000   0.00000   0.00000  -2.09440
    D4        2.09440   0.00000   0.00000   0.00000   0.00000   2.09440
         Item               Value     Threshold  Converged?
 Maximum Force            0.000446     0.000450     YES
 RMS     Force            0.000238     0.000300     YES
 Maximum Displacement     0.001204     0.001800     YES
 RMS     Displacement     0.000644     0.001200     YES
 Predicted change in Energy=-1.024296D-06
 Optimization completed.
    -- Stationary point found.
                           ----------------------------
                           !   Optimized Parameters   !
                           ! (Angstroms and Degrees)  !
 --------------------------                            --------------------------
 ! Name  Definition              Value          Derivative Info.                !
 --------------------------------------------------------------------------------
 ! R1    R(1,2)                  1.0869         -DE/DX =   -0.0004              !
 ! R2    R(1,3)                  1.0869         -DE/DX =   -0.0004              !
 ! R3    R(1,4)                  1.0869         -DE/DX =   -0.0004              !
 ! R4    R(1,5)                  1.0869         -DE/DX =   -0.0004              !
 ! A1    A(2,1,3)              109.4712         -DE/DX =    0.0                 !
 ! A2    A(2,1,4)              109.4712         -DE/DX =    0.0                 !
 ! A3    A(2,1,5)              109.4712         -DE/DX =    0.0                 !
 ! A4    A(3,1,4)              109.4712         -DE/DX =    0.0                 !
 ! A5    A(3,1,5)              109.4712         -DE/DX =    0.0                 !
 ! A6    A(4,1,5)              109.4712         -DE/DX =    0.0                 !
 ! D1    D(2,1,4,3)           -120.0            -DE/DX =    0.0                 !
 ! D2    D(2,1,5,3)            120.0            -DE/DX =    0.0                 !
 ! D3    D(2,1,5,4)           -120.0            -DE/DX =    0.0                 !
 ! D4    D(3,1,5,4)            120.0            -DE/DX =    0.0                 !
 --------------------------------------------------------------------------------
 GradGradGradGradGradGradGradGradGradGradGradGradGradGradGradGradGradGrad

                          Input orientation:                          
 ---------------------------------------------------------------------
 Center     Atomic      Atomic             Coordinates (Angstroms)
 Number     Number       Type             X           Y           Z
 ---------------------------------------------------------------------
      1          6           0        0.000000    0.000000    0.000000
      2          1           0        0.000000    0.000000    1.086878
      3          1           0        1.024718    0.000000   -0.362293
      4          1           0       -0.512359   -0.887432   -0.362293
      5          1           0       -0.512359    0.887432   -0.362293
 ---------------------------------------------------------------------
                    Distance matrix (angstroms):
                    1          2          3          4          5
     1  C    0.000000
     2  H    1.086878   0.000000
     3  H    1.086878   1.774864   0.000000
     4  H    1.086878   1.774864   1.774864   0.000000
     5  H    1.086878   1.774864   1.774864   1.774864   0.000000
 Stoichiometry    CH4
 Framework group  TD[O(C),4C3(H)]
 Deg. of freedom     1
 Full point group                 TD      NOp  24
 Largest Abelian subgroup         D2      NOp   4
 Largest concise Abelian subgroup D2      NOp   4
                         Standard orientation:                         
 ---------------------------------------------------------------------
 Center     Atomic      Atomic             Coordinates (Angstroms)
 Number     Number       Type             X           Y           Z
 ---------------------------------------------------------------------
      1          6           0        0.000000    0.000000    0.000000
      2          1           0        0.627509    0.627509    0.627509
      3          1           0       -0.627509   -0.627509    0.627509
      4          1           0       -0.627509    0.627509   -0.627509
      5          1           0        0.627509   -0.627509   -0.627509
 ---------------------------------------------------------------------
 Rotational constants (GHZ):    159.1848423    159.1848423    159.1848423

 **********************************************************************

            Population analysis using the SCF density.

 **********************************************************************

 Orbital symmetries:
       Occupied  (A1) (A1) (T2) (T2) (T2)
       Virtual   (A1) (T2) (T2) (T2) (T2) (T2) (T2) (A1) (T2) (T2)
                 (T2) (T2) (T2) (T2) (A1) (A1) (E) (E) (T1) (T1)
                 (T1) (T2) (T2) (T2) (T2) (T2) (T2) (E) (E) (A1)
                 (T2) (T2) (T2) (A1)
 The electronic state is 1-A1.
 Alpha  occ. eigenvalues --  -11.20937  -0.94526  -0.54568  -0.54568  -0.54568
 Alpha virt. eigenvalues --    0.09246   0.12224   0.12224   0.12224   0.33366
 Alpha virt. eigenvalues --    0.33366   0.33366   0.41646   0.84906   0.84906
 Alpha virt. eigenvalues --    0.84906   1.17194   1.17194   1.17194   1.31234
 Alpha virt. eigenvalues --    1.35301   1.62737   1.62737   2.35026   2.35026
 Alpha virt. eigenvalues --    2.35026   2.41164   2.41164   2.41164   2.95756
 Alpha virt. eigenvalues --    2.95756   2.95756   3.25777   3.25777   3.54166
 Alpha virt. eigenvalues --    3.80295   3.80295   3.80295   4.84244
          Condensed to atoms (all electrons):
               1          2          3          4          5
     1  C    4.929091   0.398422   0.398422   0.398422   0.398422
     2  H    0.398422   0.550063  -0.026393  -0.026393  -0.026393
     3  H    0.398422  -0.026393   0.550063  -0.026393  -0.026393
     4  H    0.398422  -0.026393  -0.026393   0.550063  -0.026393
     5  H    0.398422  -0.026393  -0.026393  -0.026393   0.550063
 Mulliken charges:
               1
     1  C   -0.522779
     2  H    0.130695
     3  H    0.130695
     4  H    0.130695
     5  H    0.130695
 Sum of Mulliken charges =   0.00000
 Mulliken charges with hydrogens summed into heavy atoms:
               1
     1  C    0.000000
 Electronic spatial extent (au):  <R**2>=             35.7615
 Charge=              0.0000 electrons
 Dipole moment (field-independent basis, Debye):
    X=              0.0000    Y=              0.0000    Z=              0.0000  Tot=              0.0000
 Quadrupole moment (field-independent basis, Debye-Ang):
   XX=             -8.4681   YY=             -8.4681   ZZ=             -8.4681
   XY=              0.0000   XZ=              0.0000   YZ=              0.0000
 Traceless Quadrupole moment (field-independent basis, Debye-Ang):
   XX=              0.0000   YY=              0.0000   ZZ=              0.0000
   XY=              0.0000   XZ=              0.0000   YZ=              0.0000
 Octapole moment (field-independent basis, Debye-Ang**2):
  XXX=              0.0000  YYY=              0.0000  ZZZ=              0.0000  XYY=              0.0000
  XXY=              0.0000  XXZ=              0.0000  XZZ=              0.0000  YZZ=              0.0000
  YYZ=              0.0000  XYZ=              0.6706
 Hexadecapole moment (field-independent basis, Debye-Ang**3):
 XXXX=            -16.6313 YYYY=            -16.6313 ZZZZ=            -16.6313 XXXY=              0.0000
 XXXZ=              0.0000 YYYX=              0.0000 YYYZ=              0.0000 ZZZX=              0.0000
 ZZZY=              0.0000 XXYY=             -5.0752 XXZZ=             -5.0752 YYZZ=             -5.0752
 XXYZ=              0.0000 YYXZ=              0.0000 ZZXY=              0.0000
 N-N= 1.347398144763D+01 E-N=-1.199274392693D+02  KE= 4.015864173838D+01
 Symmetry A    KE= 3.447395696759D+01
 Symmetry B1   KE= 1.894894923597D+00
 Symmetry B2   KE= 1.894894923597D+00
 Symmetry B3   KE= 1.894894923597D+00
 1\1\GINC-CH-NETTLE\FOpt\RMP2-FC\6-31+G(d,p)\C1H4\JS4811\14-Dec-2015\0\
 \# MP2/6-31+G(d,p) Opt Freq\\Methane\\0,1\C,0.0000000072,-0.0000000135
 ,0.0000000203\H,0.000000019,-0.0000000296,1.0868780363\H,1.0247184238,
 -0.0000000793,-0.3622926628\H,-0.5123592686,-0.8874321565,-0.362292659
 2\H,-0.5123591454,0.8874322113,-0.3622926329\\Version=EM64M-G09RevD.01
 \State=1-A1\HF=-40.2021063\MP2=-40.3659521\RMSD=3.365e-09\RMSF=2.304e-
 04\Dipole=0.,0.,0.\PG=TD [O(C1),4C3(H1)]\\@


 Luck is a matter of preparation meeting opportunity.
                                    -- Oprah Winfrey
 Job cpu time:       0 days  0 hours  0 minutes  2.9 seconds.
 File lengths (MBytes):  RWF=      5 Int=      0 D2E=      0 Chk=      1 Scr=      1
 Normal termination of Gaussian 09 at Mon Dec 14 12:37:06 2015.
 Link1:  Proceeding to internal job step number  2.
 ----------------------------------------------------------------------
 #N Geom=AllCheck Guess=TCheck SCRF=Check GenChk RMP2(FC)/6-31+G(d,p) F
 req
 ----------------------------------------------------------------------
 1/10=4,29=7,30=1,38=1,40=1/1,3;
 2/12=2,40=1/2;
 3/5=1,6=6,7=111,11=1,14=-4,16=1,25=1,30=1,70=2,71=2,116=1,140=1/1,2,3;
 4/5=101/1;
 5/5=2,98=1/2;
 8/6=3,8=1,10=2,19=11,30=-1/1;
 9/15=3,16=-3/6;
 11/6=1,8=1,15=11,17=12,24=-1,27=1,28=-2,29=300,32=6,42=3/1,2,10;
 10/6=2,21=1/2;
 8/6=4,8=1,10=2,19=11,30=-1/11,4;
 10/5=1,20=4/2;
 11/12=2,14=11,16=1,17=2,28=-2,42=3/2,10,12;
 6/7=2,8=2,9=2,10=2/1;
 7/8=1,10=1,12=2,25=1,44=2/1,2,3,16;
 1/10=4,30=1/3;
 99//99;
 Structure from the checkpoint file:  "methane.chk"
 -------
 Methane
 -------
 Charge =  0 Multiplicity = 1
 Redundant internal coordinates found in file.
 C,0,0.0000000072,-0.0000000135,0.0000000203
 H,0,0.000000019,-0.0000000296,1.0868780363
 H,0,1.0247184238,-0.0000000793,-0.3622926628
 H,0,-0.5123592686,-0.8874321565,-0.3622926592
 H,0,-0.5123591454,0.8874322113,-0.3622926329
 Recover connectivity data from disk.

 GradGradGradGradGradGradGradGradGradGradGradGradGradGradGradGradGradGrad
 Berny optimization.
 Initialization pass.
                           ----------------------------
                           !    Initial Parameters    !
                           ! (Angstroms and Degrees)  !
 --------------------------                            --------------------------
 ! Name  Definition              Value          Derivative Info.                !
 --------------------------------------------------------------------------------
 ! R1    R(1,2)                  1.0869         calculate D2E/DX2 analytically  !
 ! R2    R(1,3)                  1.0869         calculate D2E/DX2 analytically  !
 ! R3    R(1,4)                  1.0869         calculate D2E/DX2 analytically  !
 ! R4    R(1,5)                  1.0869         calculate D2E/DX2 analytically  !
 ! A1    A(2,1,3)              109.4712         calculate D2E/DX2 analytically  !
 ! A2    A(2,1,4)              109.4712         calculate D2E/DX2 analytically  !
 ! A3    A(2,1,5)              109.4712         calculate D2E/DX2 analytically  !
 ! A4    A(3,1,4)              109.4712         calculate D2E/DX2 analytically  !
 ! A5    A(3,1,5)              109.4712         calculate D2E/DX2 analytically  !
 ! A6    A(4,1,5)              109.4712         calculate D2E/DX2 analytically  !
 ! D1    D(2,1,4,3)           -120.0            calculate D2E/DX2 analytically  !
 ! D2    D(2,1,5,3)            120.0            calculate D2E/DX2 analytically  !
 ! D3    D(2,1,5,4)           -120.0            calculate D2E/DX2 analytically  !
 ! D4    D(3,1,5,4)            120.0            calculate D2E/DX2 analytically  !
 --------------------------------------------------------------------------------
 Trust Radius=3.00D-01 FncErr=1.00D-07 GrdErr=1.00D-07
 Number of steps in this run=      2 maximum allowed number of steps=      2.
 GradGradGradGradGradGradGradGradGradGradGradGradGradGradGradGradGradGrad

                          Input orientation:                          
 ---------------------------------------------------------------------
 Center     Atomic      Atomic             Coordinates (Angstroms)
 Number     Number       Type             X           Y           Z
 ---------------------------------------------------------------------
      1          6           0        0.000000    0.000000    0.000000
      2          1           0        0.000000    0.000000    1.086878
      3          1           0        1.024718    0.000000   -0.362293
      4          1           0       -0.512359   -0.887432   -0.362293
      5          1           0       -0.512359    0.887432   -0.362293
 ---------------------------------------------------------------------
                    Distance matrix (angstroms):
                    1          2          3          4          5
     1  C    0.000000
     2  H    1.086878   0.000000
     3  H    1.086878   1.774864   0.000000
     4  H    1.086878   1.774864   1.774864   0.000000
     5  H    1.086878   1.774864   1.774864   1.774864   0.000000
 Stoichiometry    CH4
 Framework group  TD[O(C),4C3(H)]
 Deg. of freedom     1
 Full point group                 TD      NOp  24
 Largest Abelian subgroup         D2      NOp   4
 Largest concise Abelian subgroup D2      NOp   4
                         Standard orientation:                         
 ---------------------------------------------------------------------
 Center     Atomic      Atomic             Coordinates (Angstroms)
 Number     Number       Type             X           Y           Z
 ---------------------------------------------------------------------
      1          6           0        0.000000    0.000000    0.000000
      2          1           0        0.627509    0.627509    0.627509
      3          1           0       -0.627509   -0.627509    0.627509
      4          1           0       -0.627509    0.627509   -0.627509
      5          1           0        0.627509   -0.627509   -0.627509
 ---------------------------------------------------------------------
 Rotational constants (GHZ):    159.1848423    159.1848423    159.1848423
 Standard basis: 6-31+G(d,p) (6D, 7F)
 There are    12 symmetry adapted cartesian basis functions of A   symmetry.
 There are     9 symmetry adapted cartesian basis functions of B1  symmetry.
 There are     9 symmetry adapted cartesian basis functions of B2  symmetry.
 There are     9 symmetry adapted cartesian basis functions of B3  symmetry.
 There are    12 symmetry adapted basis functions of A   symmetry.
 There are     9 symmetry adapted basis functions of B1  symmetry.
 There are     9 symmetry adapted basis functions of B2  symmetry.
 There are     9 symmetry adapted basis functions of B3  symmetry.
    39 basis functions,    60 primitive gaussians,    39 cartesian basis functions
     5 alpha electrons        5 beta electrons
       nuclear repulsion energy        13.4739814476 Hartrees.
 NAtoms=    5 NActive=    5 NUniq=    2 SFac= 4.00D+00 NAtFMM=   60 NAOKFM=F Big=F
 Integral buffers will be    131072 words long.
 Raffenetti 1 integral format.
 Two-electron integral symmetry is turned on.
 One-electron integrals computed using PRISM.
 NBasis=    39 RedAO= T EigKep=  1.27D-02  NBF=    12     9     9     9
 NBsUse=    39 1.00D-06 EigRej= -1.00D+00 NBFU=    12     9     9     9
 Initial guess from the checkpoint file:  "methane.chk"
 B after Tr=     0.000000    0.000000    0.000000
         Rot=    1.000000    0.000000    0.000000    0.000000 Ang=   0.00 deg.
 Initial guess orbital symmetries:
       Occupied  (A1) (A1) (T2) (T2) (T2)
       Virtual   (A1) (T2) (T2) (T2) (T2) (T2) (T2) (A1) (T2) (T2)
                 (T2) (T2) (T2) (T2) (A1) (A1) (E) (E) (T1) (T1)
                 (T1) (T2) (T2) (T2) (T2) (T2) (T2) (E) (E) (A1)
                 (T2) (T2) (T2) (A1)
 Keep R1 ints in memory in symmetry-blocked form, NReq=1165467.
 Requested convergence on RMS density matrix=1.00D-08 within 128 cycles.
 Requested convergence on MAX density matrix=1.00D-06.
 Requested convergence on             energy=1.00D-06.
 No special actions if energy rises.
 SCF Done:  E(RHF) =  -40.2021062792     A.U. after    1 cycles
            NFock=  1  Conv=0.15D-09     -V/T= 2.0011
 ExpMin= 4.38D-02 ExpMax= 3.05D+03 ExpMxC= 4.57D+02 IAcc=3 IRadAn=         5 AccDes= 0.00D+00
 HarFok:  IExCor=  205 AccDes= 0.00D+00 IRadAn=         5 IDoV=-2 UseB2=F ITyADJ=14
 ICtDFT= 12500011 ScaDFX=  1.000000  1.000000  1.000000  1.000000
 Range of M.O.s used for correlation:     2    39
 NBasis=    39 NAE=     5 NBE=     5 NFC=     1 NFV=     0
 NROrb=     38 NOA=     4 NOB=     4 NVA=    34 NVB=    34
 Disk-based method using ON**2 memory for  4 occupieds at a time.
 Permanent disk used for amplitudes=       34510 words.
 Estimated scratch disk usage=      892390 words.
 Actual    scratch disk usage=      892390 words.
 JobTyp=1 Pass  1:  I=   2 to   5 NPSUse=  1 ParTrn=F ParDer=F DoDerP=T.
 (rs|ai) integrals will be sorted in core.
 Spin components of T(2) and E(2):
     alpha-alpha T2 =       0.4939288616D-02 E2=     -0.1498527902D-01
     alpha-beta  T2 =       0.4150850765D-01 E2=     -0.1338752615D+00
     beta-beta   T2 =       0.4939288616D-02 E2=     -0.1498527902D-01
 ANorm=    0.1025371681D+01
 E2 =    -0.1638458195D+00 EUMP2 =    -0.40365952098672D+02
 G2DrvN: will do     6 centers at a time, making    1 passes.
 Calling FoFCou, ICntrl=  3107 FMM=F I1Cent=   0 AccDes= 0.00D+00.
 End of G2Drv F.D. properties file   721 does not exist.
 End of G2Drv F.D. properties file   722 does not exist.
 End of G2Drv F.D. properties file   788 does not exist.
          IDoAtm=11111
          Differentiating once with respect to electric field.
                with respect to dipole field.
          Differentiating once with respect to nuclear coordinates.
 Keep R1 ints in memory in symmetry-blocked form, NReq=1149378.
          There are    18 degrees of freedom in the 1st order CPHF.  IDoFFX=6 NUNeed=    18.
     15 vectors produced by pass  0 Test12= 9.44D-16 5.56D-09 XBig12= 2.82D+00 9.65D-01.
 AX will form    15 AO Fock derivatives at one time.
     15 vectors produced by pass  1 Test12= 9.44D-16 5.56D-09 XBig12= 2.67D-02 8.25D-02.
     15 vectors produced by pass  2 Test12= 9.44D-16 5.56D-09 XBig12= 9.95D-05 4.13D-03.
     15 vectors produced by pass  3 Test12= 9.44D-16 5.56D-09 XBig12= 2.25D-07 1.86D-04.
     15 vectors produced by pass  4 Test12= 9.44D-16 5.56D-09 XBig12= 7.03D-10 1.53D-05.
     15 vectors produced by pass  5 Test12= 9.44D-16 5.56D-09 XBig12= 1.53D-12 5.30D-07.
      4 vectors produced by pass  6 Test12= 9.44D-16 5.56D-09 XBig12= 4.98D-15 2.87D-08.
 InvSVY:  IOpt=1 It=  1 EMax= 1.55D-15
 Solved reduced A of dimension    94 with    15 vectors.
 End of Minotr F.D. properties file   721 does not exist.
 End of Minotr F.D. properties file   722 does not exist.
 End of Minotr F.D. properties file   788 does not exist.
 MDV=    33554432.
 Form MO integral derivatives with frozen-active canonical formalism.
 Discarding MO integrals.
 Reordered first order wavefunction length =        57800
 In DefCFB: NBatch=  1 ICI=  5 ICA= 34 LFMax= 17
            Large arrays: LIAPS=     1034280 LIARS=      881790 words.
 Semi-Direct transformation.
 ModeAB=           4 MOrb=             5 LenV=      33366519
 LASXX=       131635 LTotXX=      131635 LenRXX=      273385
 LTotAB=      141750 MaxLAS=       76050 LenRXY=           0
 NonZer=      405020 LenScr=     1214464 LnRSAI=       76050
 LnScr1=      785920 LExtra=           0 Total=      2349819
 MaxDsk=          -1 SrtSym=           T ITran=            4
 JobTyp=0 Pass  1:  I=   1 to   5.
 (rs|ai) integrals will be sorted in core.
 Spin components of T(2) and E(2):
     alpha-alpha T2 =       0.4939288616D-02 E2=     -0.1498527902D-01
     alpha-beta  T2 =       0.4150850765D-01 E2=     -0.1338752615D+00
     beta-beta   T2 =       0.4939288616D-02 E2=     -0.1498527902D-01
 ANorm=    0.1450094538D+01
 E2 =    -0.1638458195D+00 EUMP2 =    -0.40365952098672D+02
          IDoAtm=11111
          Differentiating once with respect to electric field.
                with respect to dipole field.
          Differentiating once with respect to nuclear coordinates.
          There are     1 degrees of freedom in the 1st order CPHF.  IDoFFX=0 NUNeed=     1.
 LinEq1:  Iter=  0 NonCon=     1 RMS=4.27D-03 Max=1.59D-02 NDo=     1
 LinEq1:  Iter=  1 NonCon=     1 RMS=1.52D-03 Max=8.39D-03 NDo=     1
 LinEq1:  Iter=  2 NonCon=     1 RMS=1.88D-04 Max=1.08D-03 NDo=     1
 LinEq1:  Iter=  3 NonCon=     1 RMS=1.29D-05 Max=7.35D-05 NDo=     1
 LinEq1:  Iter=  4 NonCon=     1 RMS=8.05D-07 Max=4.20D-06 NDo=     1
 LinEq1:  Iter=  5 NonCon=     1 RMS=5.05D-08 Max=2.72D-07 NDo=     1
 LinEq1:  Iter=  6 NonCon=     1 RMS=2.45D-09 Max=1.34D-08 NDo=     1
 LinEq1:  Iter=  7 NonCon=     1 RMS=2.02D-10 Max=1.12D-09 NDo=     1
 LinEq1:  Iter=  8 NonCon=     0 RMS=8.55D-12 Max=4.87D-11 NDo=     1
 Linear equations converged to 1.000D-10 1.000D-09 after     8 iterations.
 End of Minotr F.D. properties file   721 does not exist.
 End of Minotr F.D. properties file   722 does not exist.
 End of Minotr F.D. properties file   788 does not exist.
 Symmetrizing basis deriv contribution to polar:
 IMax=3 JMax=2 DiffMx= 0.00D+00
 G2DrvN: will do     6 centers at a time, making    1 passes.
 Calling FoFCou, ICntrl=  3107 FMM=F I1Cent=   0 AccDes= 0.00D+00.
 End of G2Drv F.D. properties file   721 does not exist.
 End of G2Drv F.D. properties file   722 does not exist.
 End of G2Drv F.D. properties file   788 does not exist.
 R2 and R3 integrals will be kept in memory, NReq=     1429180.
 DD1Dir will call FoFMem   1 times, MxPair=        30
 NAB=    15 NAA=     0 NBB=     0.
 Discarding MO integrals.

 **********************************************************************

            Population analysis using the SCF density.

 **********************************************************************

 Orbital symmetries:
       Occupied  (A1) (A1) (T2) (T2) (T2)
       Virtual   (A1) (T2) (T2) (T2) (T2) (T2) (T2) (A1) (T2) (T2)
                 (T2) (T2) (T2) (T2) (A1) (A1) (E) (E) (T1) (T1)
                 (T1) (T2) (T2) (T2) (T2) (T2) (T2) (E) (E) (A1)
                 (T2) (T2) (T2) (A1)
 The electronic state is 1-A1.
 Alpha  occ. eigenvalues --  -11.20937  -0.94526  -0.54568  -0.54568  -0.54568
 Alpha virt. eigenvalues --    0.09246   0.12224   0.12224   0.12224   0.33366
 Alpha virt. eigenvalues --    0.33366   0.33366   0.41646   0.84906   0.84906
 Alpha virt. eigenvalues --    0.84906   1.17194   1.17194   1.17194   1.31234
 Alpha virt. eigenvalues --    1.35301   1.62737   1.62737   2.35026   2.35026
 Alpha virt. eigenvalues --    2.35026   2.41164   2.41164   2.41164   2.95756
 Alpha virt. eigenvalues --    2.95756   2.95756   3.25777   3.25777   3.54166
 Alpha virt. eigenvalues --    3.80295   3.80295   3.80295   4.84244
          Condensed to atoms (all electrons):
               1          2          3          4          5
     1  C    4.929091   0.398422   0.398422   0.398422   0.398422
     2  H    0.398422   0.550063  -0.026393  -0.026393  -0.026393
     3  H    0.398422  -0.026393   0.550063  -0.026393  -0.026393
     4  H    0.398422  -0.026393  -0.026393   0.550063  -0.026393
     5  H    0.398422  -0.026393  -0.026393  -0.026393   0.550063
 Mulliken charges:
               1
     1  C   -0.522779
     2  H    0.130695
     3  H    0.130695
     4  H    0.130695
     5  H    0.130695
 Sum of Mulliken charges =   0.00000
 Mulliken charges with hydrogens summed into heavy atoms:
               1
     1  C    0.000000
 APT charges:
               1
     1  C   -0.009338
     2  H    0.002335
     3  H    0.002335
     4  H    0.002335
     5  H    0.002335
 Sum of APT charges =   0.00000
 APT charges with hydrogens summed into heavy atoms:
               1
     1  C    0.000000
 Electronic spatial extent (au):  <R**2>=             35.7615
 Charge=              0.0000 electrons
 Dipole moment (field-independent basis, Debye):
    X=              0.0000    Y=              0.0000    Z=              0.0000  Tot=              0.0000
 Quadrupole moment (field-independent basis, Debye-Ang):
   XX=             -8.4681   YY=             -8.4681   ZZ=             -8.4681
   XY=              0.0000   XZ=              0.0000   YZ=              0.0000
 Traceless Quadrupole moment (field-independent basis, Debye-Ang):
   XX=              0.0000   YY=              0.0000   ZZ=              0.0000
   XY=              0.0000   XZ=              0.0000   YZ=              0.0000
 Octapole moment (field-independent basis, Debye-Ang**2):
  XXX=              0.0000  YYY=              0.0000  ZZZ=              0.0000  XYY=              0.0000
  XXY=              0.0000  XXZ=              0.0000  XZZ=              0.0000  YZZ=              0.0000
  YYZ=              0.0000  XYZ=              0.6706
 Hexadecapole moment (field-independent basis, Debye-Ang**3):
 XXXX=            -16.6313 YYYY=            -16.6313 ZZZZ=            -16.6313 XXXY=              0.0000
 XXXZ=              0.0000 YYYX=              0.0000 YYYZ=              0.0000 ZZZX=              0.0000
 ZZZY=              0.0000 XXYY=             -5.0752 XXZZ=             -5.0752 YYZZ=             -5.0752
 XXYZ=              0.0000 YYXZ=              0.0000 ZZXY=              0.0000
 N-N= 1.347398144763D+01 E-N=-1.199274392783D+02  KE= 4.015864174180D+01
 Symmetry A    KE= 3.447395696497D+01
 Symmetry B1   KE= 1.894894925610D+00
 Symmetry B2   KE= 1.894894925610D+00
 Symmetry B3   KE= 1.894894925610D+00
  Exact polarizability:  13.116   0.000  13.116   0.000   0.000  13.116
 Approx polarizability:  10.427   0.000  10.427   0.000   0.000  10.427
 Calling FoFJK, ICntrl=  10100127 FMM=F ISym2X=1 I1Cent= 0 IOpClX= 0 NMat=1 NMatS=1 NMatT=0.
 Full mass-weighted force constant matrix:
 Low frequencies ---   -0.0007   -0.0006    0.0011   75.4678   75.4678   75.4678
 Low frequencies --- 1396.2570 1396.2570 1396.2570
 Diagonal vibrational polarizability:
        0.2565437       0.2565437       0.2565437
 Harmonic frequencies (cm**-1), IR intensities (KM/Mole), Raman scattering
 activities (A**4/AMU), depolarization ratios for plane and unpolarized
 incident light, reduced masses (AMU), force constants (mDyne/A),
 and normal coordinates:
                      1                      2                      3
                     T2                     T2                     T2
 Frequencies --   1396.2570              1396.2570              1396.2570
 Red. masses --      1.1785                 1.1785                 1.1785
 Frc consts  --      1.3537                 1.3537                 1.3537
 IR Inten    --     14.5478                14.5478                14.5478
  Atom  AN      X      Y      Z        X      Y      Z        X      Y      Z
     1   6    -0.05   0.10   0.05     0.00  -0.06   0.11     0.11   0.05   0.03
     2   1     0.45  -0.29  -0.08     0.09   0.38  -0.44    -0.19   0.12   0.21
     3   1     0.24  -0.50  -0.24    -0.31  -0.02  -0.21    -0.30   0.02  -0.38
     4   1     0.08  -0.29  -0.45     0.32  -0.02  -0.21    -0.37  -0.40   0.04
     5   1    -0.12  -0.09   0.12    -0.08   0.39  -0.43    -0.47  -0.30  -0.21
                      4                      5                      6
                      E                      E                     A1
 Frequencies --   1600.1199              1600.1199              3114.5964
 Red. masses --      1.0078                 1.0078                 1.0078
 Frc consts  --      1.5203                 1.5203                 5.7602
 IR Inten    --      0.0000                 0.0000                 0.0000
  Atom  AN      X      Y      Z        X      Y      Z        X      Y      Z
     1   6     0.00   0.00   0.00     0.00   0.00   0.00     0.00   0.00   0.00
     2   1    -0.37   0.33   0.04    -0.17  -0.23   0.41    -0.29  -0.29  -0.29
     3   1     0.37  -0.33   0.04     0.17   0.23   0.41     0.29   0.29  -0.29
     4   1     0.37   0.33  -0.04     0.17  -0.23  -0.41     0.29  -0.29   0.29
     5   1    -0.37  -0.33  -0.04    -0.17   0.23  -0.41    -0.29   0.29   0.29
                      7                      8                      9
                     T2                     T2                     T2
 Frequencies --   3258.8512              3258.8512              3258.8512
 Red. masses --      1.1020                 1.1020                 1.1020
 Frc consts  --      6.8956                 6.8956                 6.8956
 IR Inten    --     21.9918                21.9918                21.9918
  Atom  AN      X      Y      Z        X      Y      Z        X      Y      Z
     1   6    -0.06  -0.07   0.03     0.05  -0.01   0.08     0.05  -0.07  -0.04
     2   1     0.28   0.28   0.30    -0.38  -0.39  -0.37     0.17   0.14   0.15
     3   1     0.48   0.48  -0.48     0.12   0.11  -0.10    -0.07  -0.10   0.08
     4   1    -0.13   0.11  -0.12    -0.41   0.42  -0.41    -0.25   0.24  -0.26
     5   1     0.06  -0.08  -0.07     0.09  -0.08  -0.06    -0.49   0.48   0.49

 -------------------
 - Thermochemistry -
 -------------------
 Temperature   298.150 Kelvin.  Pressure   1.00000 Atm.
 Atom     1 has atomic number  6 and mass  12.00000
 Atom     2 has atomic number  1 and mass   1.00783
 Atom     3 has atomic number  1 and mass   1.00783
 Atom     4 has atomic number  1 and mass   1.00783
 Atom     5 has atomic number  1 and mass   1.00783
 Molecular mass:    16.03130 amu.
 Principal axes and moments of inertia in atomic units:
                           1         2         3
     Eigenvalues --    11.33739  11.33739  11.33739
           X           -0.26045   0.96549   0.00000
           Y            0.96549   0.26045   0.00000
           Z            0.00000   0.00000   1.00000
 This molecule is a spherical top.
 Rotational symmetry number 12.
 Rotational temperatures (Kelvin)      7.63966     7.63966     7.63966
 Rotational constants (GHZ):         159.18484   159.18484   159.18484
 Zero-point vibrational energy     121302.3 (Joules/Mol)
                                   28.99195 (Kcal/Mol)
 Vibrational temperatures:   2008.90  2008.90  2008.90  2302.21  2302.21
          (Kelvin)           4481.20  4688.75  4688.75  4688.75
 
 Zero-point correction=                           0.046202 (Hartree/Particle)
 Thermal correction to Energy=                    0.049063
 Thermal correction to Enthalpy=                  0.050007
 Thermal correction to Gibbs Free Energy=         0.028895
 Sum of electronic and zero-point Energies=            -40.319750
 Sum of electronic and thermal Energies=               -40.316889
 Sum of electronic and thermal Enthalpies=             -40.315945
 Sum of electronic and thermal Free Energies=          -40.337057
 
                     E (Thermal)             CV                S
                      KCal/Mol        Cal/Mol-Kelvin    Cal/Mol-Kelvin
 Total                   30.788              6.389             44.434
 Electronic               0.000              0.000              0.000
 Translational            0.889              2.981             34.261
 Rotational               0.889              2.981             10.103
 Vibrational             29.010              0.427              0.070
                       Q            Log10(Q)             Ln(Q)
 Total Bot       0.511747D-13        -13.290944        -30.603530
 Total V=0       0.912586D+08          7.960274         18.329207
 Vib (Bot)       0.563264D-21        -21.249288        -48.928293
 Vib (V=0)       0.100445D+01          0.001930          0.004445
 Electronic      0.100000D+01          0.000000          0.000000
 Translational   0.252295D+07          6.401908         14.740939
 Rotational      0.360110D+02          1.556435          3.583824
 ***** Axes restored to original set *****
 -------------------------------------------------------------------
 Center     Atomic                   Forces (Hartrees/Bohr)
 Number     Number              X              Y              Z
 -------------------------------------------------------------------
      1        6           0.000000000    0.000000000    0.000000000
      2        1           0.000000000    0.000000000   -0.000446149
      3        1          -0.000420633    0.000000000    0.000148716
      4        1           0.000210317    0.000364279    0.000148716
      5        1           0.000210317   -0.000364279    0.000148716
 -------------------------------------------------------------------
 Cartesian Forces:  Max     0.000446149 RMS     0.000230390
 FormGI is forming the generalized inverse of G from B-inverse, IUseBI=4.

 GradGradGradGradGradGradGradGradGradGradGradGradGradGradGradGradGradGrad
 Berny optimization.
 Internal  Forces:  Max     0.000446149 RMS     0.000238477
 Search for a local minimum.
 Step number   1 out of a maximum of    2
 All quantities printed in internal units (Hartrees-Bohrs-Radians)
 Second derivative matrix not updated -- analytic derivatives used.
 The second derivative matrix:
                          R1        R2        R3        R4        A1
           R1           0.36827
           R2           0.00057   0.36827
           R3           0.00057   0.00057   0.36827
           R4           0.00057   0.00057   0.00057   0.36827
           A1           0.00198   0.00198  -0.00124  -0.00271   0.02040
           A2           0.00310  -0.00080   0.00345  -0.00575  -0.00893
           A3           0.00606  -0.00486  -0.00538   0.00419  -0.01348
           A4          -0.00080   0.00310   0.00345  -0.00575  -0.00893
           A5          -0.00486   0.00606  -0.00538   0.00419  -0.01348
           A6          -0.00547  -0.00547   0.00511   0.00584   0.02440
           D1          -0.00383  -0.00383  -0.00270   0.01037  -0.01405
           D2           0.00316   0.00316  -0.00811   0.00180   0.00849
           D3          -0.00415   0.00731  -0.00406   0.00090   0.00424
           D4          -0.00731   0.00415   0.00406  -0.00090  -0.00424
                          A2        A3        A4        A5        A6
           A2           0.03859
           A3          -0.02338   0.07539
           A4          -0.00192   0.02522   0.03859
           A5           0.02522  -0.03634  -0.02338   0.07539
           A6          -0.02958  -0.02741  -0.02958  -0.02741   0.08958
           D1          -0.01152   0.01538  -0.01152   0.01538   0.00634
           D2          -0.00981   0.00741  -0.00981   0.00741  -0.00368
           D3          -0.01483  -0.00075   0.00502   0.00816  -0.00184
           D4          -0.00502  -0.00816   0.01483   0.00075   0.00184
                          D1        D2        D3        D4
           D1           0.03133
           D2           0.00162   0.01947
           D3           0.00081   0.00973   0.01975
           D4          -0.00081  -0.00973   0.01002   0.01975
 ITU=  0
     Eigenvalues ---    0.03991   0.04500   0.06854   0.13573   0.13612
     Eigenvalues ---    0.36859   0.36860   0.36887   0.36998
 Angle between quadratic step and forces=   0.00 degrees.
 Linear search not attempted -- first point.
 Iteration  1 RMS(Cart)=  0.00064456 RMS(Int)=  0.00000000
 Iteration  2 RMS(Cart)=  0.00000000 RMS(Int)=  0.00000000
 ClnCor:  largest displacement from symmetrization is 7.01D-13 for atom     5.
 Variable       Old X    -DE/DX   Delta X   Delta X   Delta X     New X
                                 (Linear)    (Quad)   (Total)
    R1        2.05390  -0.00045   0.00000  -0.00121  -0.00121   2.05270
    R2        2.05390  -0.00045   0.00000  -0.00121  -0.00121   2.05270
    R3        2.05390  -0.00045   0.00000  -0.00121  -0.00121   2.05270
    R4        2.05390  -0.00045   0.00000  -0.00121  -0.00121   2.05270
    A1        1.91063   0.00000   0.00000   0.00000   0.00000   1.91063
    A2        1.91063   0.00000   0.00000   0.00000   0.00000   1.91063
    A3        1.91063   0.00000   0.00000   0.00000   0.00000   1.91063
    A4        1.91063   0.00000   0.00000   0.00000   0.00000   1.91063
    A5        1.91063   0.00000   0.00000   0.00000   0.00000   1.91063
    A6        1.91063   0.00000   0.00000   0.00000   0.00000   1.91063
    D1       -2.09440   0.00000   0.00000   0.00000   0.00000  -2.09440
    D2        2.09440   0.00000   0.00000   0.00000   0.00000   2.09440
    D3       -2.09440   0.00000   0.00000   0.00000   0.00000  -2.09440
    D4        2.09440   0.00000   0.00000   0.00000   0.00000   2.09440
         Item               Value     Threshold  Converged?
 Maximum Force            0.000446     0.000450     YES
 RMS     Force            0.000238     0.000300     YES
 Maximum Displacement     0.001206     0.001800     YES
 RMS     Displacement     0.000645     0.001200     YES
 Predicted change in Energy=-1.075993D-06
 Optimization completed.
    -- Stationary point found.
                           ----------------------------
                           !   Optimized Parameters   !
                           ! (Angstroms and Degrees)  !
 --------------------------                            --------------------------
 ! Name  Definition              Value          Derivative Info.                !
 --------------------------------------------------------------------------------
 ! R1    R(1,2)                  1.0869         -DE/DX =   -0.0004              !
 ! R2    R(1,3)                  1.0869         -DE/DX =   -0.0004              !
 ! R3    R(1,4)                  1.0869         -DE/DX =   -0.0004              !
 ! R4    R(1,5)                  1.0869         -DE/DX =   -0.0004              !
 ! A1    A(2,1,3)              109.4712         -DE/DX =    0.0                 !
 ! A2    A(2,1,4)              109.4712         -DE/DX =    0.0                 !
 ! A3    A(2,1,5)              109.4712         -DE/DX =    0.0                 !
 ! A4    A(3,1,4)              109.4712         -DE/DX =    0.0                 !
 ! A5    A(3,1,5)              109.4712         -DE/DX =    0.0                 !
 ! A6    A(4,1,5)              109.4712         -DE/DX =    0.0                 !
 ! D1    D(2,1,4,3)           -120.0            -DE/DX =    0.0                 !
 ! D2    D(2,1,5,3)            120.0            -DE/DX =    0.0                 !
 ! D3    D(2,1,5,4)           -120.0            -DE/DX =    0.0                 !
 ! D4    D(3,1,5,4)            120.0            -DE/DX =    0.0                 !
 --------------------------------------------------------------------------------
 GradGradGradGradGradGradGradGradGradGradGradGradGradGradGradGradGradGrad

 1\1\GINC-CH-NETTLE\Freq\RMP2-FC\6-31+G(d,p)\C1H4\JS4811\14-Dec-2015\0\
 \#N Geom=AllCheck Guess=TCheck SCRF=Check GenChk RMP2(FC)/6-31+G(d,p) 
 Freq\\Methane\\0,1\C,0.0000000072,-0.0000000135,0.0000000203\H,0.00000
 0019,-0.0000000296,1.0868780363\H,1.0247184238,-0.0000000793,-0.362292
 6628\H,-0.5123592686,-0.8874321565,-0.3622926592\H,-0.5123591454,0.887
 4322113,-0.3622926329\\Version=EM64M-G09RevD.01\State=1-A1\HF=-40.2021
 063\MP2=-40.3659521\RMSD=1.531e-10\RMSF=2.304e-04\ZeroPoint=0.0462016\
 Thermal=0.0490633\Dipole=0.,0.,0.\DipoleDeriv=-0.0093381,0.,0.,0.,-0.0
 093381,0.,0.,0.,-0.0093381,0.0710234,0.,0.,0.,0.0710234,0.,0.,0.,-0.13
 50433,-0.112147,0.,0.0647605,0.,0.0710234,0.,0.0647605,0.,0.0481271,0.
 0252308,-0.0793151,-0.0323803,-0.0793151,-0.0663544,-0.0560842,-0.0323
 803,-0.0560842,0.0481271,0.0252308,0.0793151,-0.0323803,0.0793151,-0.0
 663544,0.0560842,-0.0323803,0.0560842,0.0481271\Polar=13.1160886,0.,13
 .1160886,0.,0.,13.1160886\PG=TD [O(C1),4C3(H1)]\NImag=0\\0.59009033,0.
 ,0.59009033,0.,0.,0.59009033,-0.04978598,0.,0.,0.04779685,0.,-0.049785
 98,0.,0.,0.04779685,0.,0.,-0.34299578,0.,0.,0.36827273,-0.31041691,0.0
 0000002,0.09214695,0.00246390,0.,-0.00237473,0.33266429,0.00000002,-0.
 04978598,0.,0.,-0.00113781,0.,-0.00000002,0.04779685,0.09214695,0.,-0.
 08236485,0.03317504,0.,-0.00842565,-0.10071585,0.,0.08340528,-0.114943
 73,-0.11285651,-0.04607348,-0.00023738,0.00155959,0.00118737,-0.012355
 65,-0.02656744,-0.01230307,0.11901373,-0.11285651,-0.24525916,-0.07980
 160,0.00155959,0.00156347,0.00205658,0.00245882,0.00156348,0.00078487,
 0.12335123,0.26144741,-0.04607348,-0.07980160,-0.08236485,-0.01658752,
 -0.02873042,-0.00842565,0.00547182,0.01104720,0.00369261,0.05035793,0.
 08722248,0.08340528,-0.11494370,0.11285649,-0.04607347,-0.00023739,-0.
 00155959,0.00118736,-0.01235564,0.02656744,-0.01230307,0.00852303,-0.0
 1451313,0.00683125,0.11901370,0.11285649,-0.24525920,0.07980160,-0.001
 55959,0.00156347,-0.00205658,-0.00245882,0.00156347,-0.00078487,0.0145
 1313,-0.01931520,0.01026233,-0.12335121,0.26144745,-0.04607347,0.07980
 160,-0.08236485,-0.01658752,0.02873043,-0.00842565,0.00547182,-0.01104
 720,0.00369261,0.00683125,-0.01026233,0.00369261,0.05035792,-0.0872224
 8,0.08340528\\0.,0.,0.,0.,0.,0.00044615,0.00042063,0.,-0.00014872,-0.0
 0021032,-0.00036428,-0.00014872,-0.00021032,0.00036428,-0.00014872\\\@


 ... FOR AFTERWARDS A MAN FINDS PLEASURE IN HIS PAINS,
 WHEN HE HAS SUFFERED LONG AND WANDERED FAR.

                                    -- HOMER
 Job cpu time:       0 days  0 hours  0 minutes  4.0 seconds.
 File lengths (MBytes):  RWF=     24 Int=      0 D2E=      0 Chk=      1 Scr=      1
 Normal termination of Gaussian 09 at Mon Dec 14 12:37:10 2015.
