 Entering Gaussian System, Link 0=g09
 Input=methane_chelpg.com
 Output=methane_chelpg.log
 Initial command:
 /Applications/g09/l1.exe "/Users/js4811/Scratch/Gau-3701.inp" -scrdir="/Users/js4811/Scratch/"
 Entering Link 1 = /Applications/g09/l1.exe PID=      3702.
  
 Copyright (c) 1988,1990,1992,1993,1995,1998,2003,2009,2013,
            Gaussian, Inc.  All Rights Reserved.
  
 This is part of the Gaussian(R) 09 program.  It is based on
 the Gaussian(R) 03 system (copyright 2003, Gaussian, Inc.),
 the Gaussian(R) 98 system (copyright 1998, Gaussian, Inc.),
 the Gaussian(R) 94 system (copyright 1995, Gaussian, Inc.),
 the Gaussian 92(TM) system (copyright 1992, Gaussian, Inc.),
 the Gaussian 90(TM) system (copyright 1990, Gaussian, Inc.),
 the Gaussian 88(TM) system (copyright 1988, Gaussian, Inc.),
 the Gaussian 86(TM) system (copyright 1986, Carnegie Mellon
 University), and the Gaussian 82(TM) system (copyright 1983,
 Carnegie Mellon University). Gaussian is a federally registered
 trademark of Gaussian, Inc.
  
 This software contains proprietary and confidential information,
 including trade secrets, belonging to Gaussian, Inc.
  
 This software is provided under written license and may be
 used, copied, transmitted, or stored only in accord with that
 written license.
  
 The following legend is applicable only to US Government
 contracts under FAR:
  
                    RESTRICTED RIGHTS LEGEND
  
 Use, reproduction and disclosure by the US Government is
 subject to restrictions as set forth in subparagraphs (a)
 and (c) of the Commercial Computer Software - Restricted
 Rights clause in FAR 52.227-19.
  
 Gaussian, Inc.
 340 Quinnipiac St., Bldg. 40, Wallingford CT 06492
  
  
 ---------------------------------------------------------------
 Warning -- This program may not be used in any manner that
 competes with the business of Gaussian, Inc. or will provide
 assistance to any competitor of Gaussian, Inc.  The licensee
 of this program is prohibited from giving any competitor of
 Gaussian, Inc. access to this program.  By using this program,
 the user acknowledges that Gaussian, Inc. is engaged in the
 business of creating and licensing software in the field of
 computational chemistry and represents and warrants to the
 licensee that it is not a competitor of Gaussian, Inc. and that
 it will not use this program in any manner prohibited above.
 ---------------------------------------------------------------
  

 Cite this work as:
 Gaussian 09, Revision D.01,
 M. J. Frisch, G. W. Trucks, H. B. Schlegel, G. E. Scuseria, 
 M. A. Robb, J. R. Cheeseman, G. Scalmani, V. Barone, B. Mennucci, 
 G. A. Petersson, H. Nakatsuji, M. Caricato, X. Li, H. P. Hratchian, 
 A. F. Izmaylov, J. Bloino, G. Zheng, J. L. Sonnenberg, M. Hada, 
 M. Ehara, K. Toyota, R. Fukuda, J. Hasegawa, M. Ishida, T. Nakajima, 
 Y. Honda, O. Kitao, H. Nakai, T. Vreven, J. A. Montgomery, Jr., 
 J. E. Peralta, F. Ogliaro, M. Bearpark, J. J. Heyd, E. Brothers, 
 K. N. Kudin, V. N. Staroverov, T. Keith, R. Kobayashi, J. Normand, 
 K. Raghavachari, A. Rendell, J. C. Burant, S. S. Iyengar, J. Tomasi, 
 M. Cossi, N. Rega, J. M. Millam, M. Klene, J. E. Knox, J. B. Cross, 
 V. Bakken, C. Adamo, J. Jaramillo, R. Gomperts, R. E. Stratmann, 
 O. Yazyev, A. J. Austin, R. Cammi, C. Pomelli, J. W. Ochterski, 
 R. L. Martin, K. Morokuma, V. G. Zakrzewski, G. A. Voth, 
 P. Salvador, J. J. Dannenberg, S. Dapprich, A. D. Daniels, 
 O. Farkas, J. B. Foresman, J. V. Ortiz, J. Cioslowski, 
 and D. J. Fox, Gaussian, Inc., Wallingford CT, 2013.
 
 ******************************************
 Gaussian 09:  EM64M-G09RevD.01 24-Apr-2013
                14-Dec-2015 
 ******************************************
 %chk=methane_chelpg.chk
 ---------------------------------------
 # MP2/6-31+G(d,p) Geom=Check Pop=CHelpG
 ---------------------------------------
 1/29=2,38=1/1;
 2/12=2,40=1/2;
 3/5=1,6=6,7=111,11=9,14=-4,16=1,25=1,30=1/1,2,3;
 4//1;
 5/5=2,38=5/2;
 8/10=2/1;
 9/16=-3/6;
 6/7=2,8=2,9=2,10=2,15=8,20=3/1,2;
 99/5=1,9=1/99;
 --------------
 Methane ChelpG
 --------------
 Structure from the checkpoint file:  "methane_chelpg.chk"
 Charge =  0 Multiplicity = 1
 Redundant internal coordinates found in file.
 C,0,0.0000000072,-0.0000000135,0.0000000203
 H,0,0.000000019,-0.0000000296,1.0868780363
 H,0,1.0247184238,-0.0000000793,-0.3622926628
 H,0,-0.5123592686,-0.8874321565,-0.3622926592
 H,0,-0.5123591454,0.8874322113,-0.3622926329
 Recover connectivity data from disk.
                          Input orientation:                          
 ---------------------------------------------------------------------
 Center     Atomic      Atomic             Coordinates (Angstroms)
 Number     Number       Type             X           Y           Z
 ---------------------------------------------------------------------
      1          6           0        0.000000    0.000000    0.000000
      2          1           0        0.000000    0.000000    1.086878
      3          1           0        1.024718    0.000000   -0.362293
      4          1           0       -0.512359   -0.887432   -0.362293
      5          1           0       -0.512359    0.887432   -0.362293
 ---------------------------------------------------------------------
                    Distance matrix (angstroms):
                    1          2          3          4          5
     1  C    0.000000
     2  H    1.086878   0.000000
     3  H    1.086878   1.774864   0.000000
     4  H    1.086878   1.774864   1.774864   0.000000
     5  H    1.086878   1.774864   1.774864   1.774864   0.000000
 Stoichiometry    CH4
 Framework group  TD[O(C),4C3(H)]
 Deg. of freedom     1
 Full point group                 TD      NOp  24
 Largest Abelian subgroup         D2      NOp   4
 Largest concise Abelian subgroup D2      NOp   4
                         Standard orientation:                         
 ---------------------------------------------------------------------
 Center     Atomic      Atomic             Coordinates (Angstroms)
 Number     Number       Type             X           Y           Z
 ---------------------------------------------------------------------
      1          6           0        0.000000    0.000000    0.000000
      2          1           0        0.627509    0.627509    0.627509
      3          1           0       -0.627509   -0.627509    0.627509
      4          1           0       -0.627509    0.627509   -0.627509
      5          1           0        0.627509   -0.627509   -0.627509
 ---------------------------------------------------------------------
 Rotational constants (GHZ):    159.1848423    159.1848423    159.1848423
 Standard basis: 6-31+G(d,p) (6D, 7F)
 There are    12 symmetry adapted cartesian basis functions of A   symmetry.
 There are     9 symmetry adapted cartesian basis functions of B1  symmetry.
 There are     9 symmetry adapted cartesian basis functions of B2  symmetry.
 There are     9 symmetry adapted cartesian basis functions of B3  symmetry.
 There are    12 symmetry adapted basis functions of A   symmetry.
 There are     9 symmetry adapted basis functions of B1  symmetry.
 There are     9 symmetry adapted basis functions of B2  symmetry.
 There are     9 symmetry adapted basis functions of B3  symmetry.
    39 basis functions,    60 primitive gaussians,    39 cartesian basis functions
     5 alpha electrons        5 beta electrons
       nuclear repulsion energy        13.4739814476 Hartrees.
 NAtoms=    5 NActive=    5 NUniq=    2 SFac= 4.00D+00 NAtFMM=   60 NAOKFM=F Big=F
 Integral buffers will be    131072 words long.
 Raffenetti 1 integral format.
 Two-electron integral symmetry is turned on.
 One-electron integrals computed using PRISM.
 NBasis=    39 RedAO= T EigKep=  1.27D-02  NBF=    12     9     9     9
 NBsUse=    39 1.00D-06 EigRej= -1.00D+00 NBFU=    12     9     9     9
 ExpMin= 4.38D-02 ExpMax= 3.05D+03 ExpMxC= 4.57D+02 IAcc=2 IRadAn=         4 AccDes= 0.00D+00
 Harris functional with IExCor=  205 and IRadAn=       4 diagonalized for initial guess.
 HarFok:  IExCor=  205 AccDes= 0.00D+00 IRadAn=         4 IDoV= 1 UseB2=F ITyADJ=14
 ICtDFT=  3500011 ScaDFX=  1.000000  1.000000  1.000000  1.000000
 FoFCou: FMM=F IPFlag=           0 FMFlag=      100000 FMFlg1=           0
         NFxFlg=           0 DoJE=T BraDBF=F KetDBF=T FulRan=T
         wScrn=  0.000000 ICntrl=     500 IOpCl=  0 I1Cent=   200000004 NGrid=           0
         NMat0=    1 NMatS0=      1 NMatT0=    0 NMatD0=    1 NMtDS0=    0 NMtDT0=    0
 Petite list used in FoFCou.
 Initial guess orbital symmetries:
       Occupied  (A1) (A1) (T2) (T2) (T2)
       Virtual   (A1) (T2) (T2) (T2) (T2) (T2) (T2) (A1) (T2) (T2)
                 (T2) (T2) (T2) (T2) (A1) (A1) (E) (E) (T1) (T1)
                 (T1) (T2) (T2) (T2) (T2) (T2) (T2) (E) (E) (A1)
                 (T2) (T2) (T2) (A1)
 The electronic state of the initial guess is 1-A1.
 Keep R1 ints in memory in symmetry-blocked form, NReq=1165467.
 Requested convergence on RMS density matrix=1.00D-08 within 128 cycles.
 Requested convergence on MAX density matrix=1.00D-06.
 Requested convergence on             energy=1.00D-06.
 No special actions if energy rises.
 SCF Done:  E(RHF) =  -40.2021062792     A.U. after    8 cycles
            NFock=  8  Conv=0.22D-08     -V/T= 2.0011
 ExpMin= 4.38D-02 ExpMax= 3.05D+03 ExpMxC= 4.57D+02 IAcc=3 IRadAn=         5 AccDes= 0.00D+00
 HarFok:  IExCor=  205 AccDes= 0.00D+00 IRadAn=         5 IDoV=-2 UseB2=F ITyADJ=14
 ICtDFT= 12500011 ScaDFX=  1.000000  1.000000  1.000000  1.000000
 Range of M.O.s used for correlation:     2    39
 NBasis=    39 NAE=     5 NBE=     5 NFC=     1 NFV=     0
 NROrb=     38 NOA=     4 NOB=     4 NVA=    34 NVB=    34
 Fully in-core method, ICMem=     6712644.
 JobTyp=1 Pass  1 fully in-core, NPsUse=  1.
 Spin components of T(2) and E(2):
     alpha-alpha T2 =       0.4939288632D-02 E2=     -0.1498527905D-01
     alpha-beta  T2 =       0.4150850776D-01 E2=     -0.1338752616D+00
     beta-beta   T2 =       0.4939288632D-02 E2=     -0.1498527905D-01
 ANorm=    0.1025371681D+01
 E2 =    -0.1638458197D+00 EUMP2 =    -0.40365952098817D+02

 **********************************************************************

            Population analysis using the SCF density.

 **********************************************************************

 Orbital symmetries:
       Occupied  (A1) (A1) (T2) (T2) (T2)
       Virtual   (A1) (T2) (T2) (T2) (T2) (T2) (T2) (A1) (T2) (T2)
                 (T2) (T2) (T2) (T2) (A1) (A1) (E) (E) (T1) (T1)
                 (T1) (T2) (T2) (T2) (T2) (T2) (T2) (E) (E) (A1)
                 (T2) (T2) (T2) (A1)
 The electronic state is 1-A1.
 Alpha  occ. eigenvalues --  -11.20937  -0.94526  -0.54568  -0.54568  -0.54568
 Alpha virt. eigenvalues --    0.09246   0.12224   0.12224   0.12224   0.33366
 Alpha virt. eigenvalues --    0.33366   0.33366   0.41646   0.84906   0.84906
 Alpha virt. eigenvalues --    0.84906   1.17194   1.17194   1.17194   1.31234
 Alpha virt. eigenvalues --    1.35301   1.62737   1.62737   2.35026   2.35026
 Alpha virt. eigenvalues --    2.35026   2.41164   2.41164   2.41164   2.95756
 Alpha virt. eigenvalues --    2.95756   2.95756   3.25777   3.25777   3.54166
 Alpha virt. eigenvalues --    3.80295   3.80295   3.80295   4.84244
          Condensed to atoms (all electrons):
               1          2          3          4          5
     1  C    4.929091   0.398422   0.398422   0.398422   0.398422
     2  H    0.398422   0.550063  -0.026393  -0.026393  -0.026393
     3  H    0.398422  -0.026393   0.550063  -0.026393  -0.026393
     4  H    0.398422  -0.026393  -0.026393   0.550063  -0.026393
     5  H    0.398422  -0.026393  -0.026393  -0.026393   0.550063
 Mulliken charges:
               1
     1  C   -0.522779
     2  H    0.130695
     3  H    0.130695
     4  H    0.130695
     5  H    0.130695
 Sum of Mulliken charges =   0.00000
 Mulliken charges with hydrogens summed into heavy atoms:
               1
     1  C    0.000000
 Electronic spatial extent (au):  <R**2>=             35.7615
 Charge=              0.0000 electrons
 Dipole moment (field-independent basis, Debye):
    X=              0.0000    Y=              0.0000    Z=              0.0000  Tot=              0.0000
 Quadrupole moment (field-independent basis, Debye-Ang):
   XX=             -8.4681   YY=             -8.4681   ZZ=             -8.4681
   XY=              0.0000   XZ=              0.0000   YZ=              0.0000
 Traceless Quadrupole moment (field-independent basis, Debye-Ang):
   XX=              0.0000   YY=              0.0000   ZZ=              0.0000
   XY=              0.0000   XZ=              0.0000   YZ=              0.0000
 Octapole moment (field-independent basis, Debye-Ang**2):
  XXX=              0.0000  YYY=              0.0000  ZZZ=              0.0000  XYY=              0.0000
  XXY=              0.0000  XXZ=              0.0000  XZZ=              0.0000  YZZ=              0.0000
  YYZ=              0.0000  XYZ=              0.6706
 Hexadecapole moment (field-independent basis, Debye-Ang**3):
 XXXX=            -16.6313 YYYY=            -16.6313 ZZZZ=            -16.6313 XXXY=              0.0000
 XXXZ=              0.0000 YYYX=              0.0000 YYYZ=              0.0000 ZZZX=              0.0000
 ZZZY=              0.0000 XXYY=             -5.0752 XXZZ=             -5.0752 YYZZ=             -5.0752
 XXYZ=              0.0000 YYXZ=              0.0000 ZZXY=              0.0000
 N-N= 1.347398144763D+01 E-N=-1.199274392727D+02  KE= 4.015864174012D+01
 Symmetry A    KE= 3.447395697794D+01
 Symmetry B1   KE= 1.894894920727D+00
 Symmetry B2   KE= 1.894894920727D+00
 Symmetry B3   KE= 1.894894920727D+00
 Breneman (CHELPG) radii used.
 Generate Potential Derived Charges using the Breneman model, NDens= 1.
 Grid spacing= 0.300 Box extension= 2.800
 NStep X,Y,Z=   24     24     24   Total possible points=       13824
 Number of Points to Fit=    5360

 **********************************************************************

            Electrostatic Properties Using The SCF Density

 **********************************************************************

       Atomic Center    1 is at   0.000000  0.000000  0.000000
       Atomic Center    2 is at   0.627509  0.627509  0.627509
       Atomic Center    3 is at  -0.627509 -0.627509  0.627509
       Atomic Center    4 is at  -0.627509  0.627509 -0.627509
       Atomic Center    5 is at   0.627509 -0.627509 -0.627509
    5360 points will be used for fitting atomic charges
 Fitting point charges to electrostatic potential
 Charges from ESP fit, RMS=   0.00117 RRMS=   0.60243:
 ESP charges:
               1
     1  C   -0.349358
     2  H    0.087340
     3  H    0.087340
     4  H    0.087340
     5  H    0.087340
 Sum of ESP charges =   0.00000
 ESP charges with hydrogens summed into heavy atoms:
               1
     1  C    0.000000
 Charge=   0.00000 Dipole=     0.0000     0.0000     0.0000 Tot=     0.0000
 -----------------------------------------------------------------

              Electrostatic Properties (Atomic Units)

 -----------------------------------------------------------------
    Center     Electric         -------- Electric Field --------
               Potential          X             Y             Z
 -----------------------------------------------------------------
    1 Atom    -14.746053
    2 Atom     -1.125789
    3 Atom     -1.125789
    4 Atom     -1.125789
    5 Atom     -1.125789
 -----------------------------------------------------------------
 1\1\GINC-CH-NETTLE\SP\RMP2-FC\6-31+G(d,p)\C1H4\JS4811\14-Dec-2015\0\\#
  MP2/6-31+G(d,p) Geom=Check Pop=CHelpG\\Methane ChelpG\\0,1\C,0,0.0000
 000072,-0.0000000135,0.0000000203\H,0,0.000000019,-0.0000000296,1.0868
 780363\H,0,1.0247184238,-0.0000000793,-0.3622926628\H,0,-0.5123592686,
 -0.8874321565,-0.3622926592\H,0,-0.5123591454,0.8874322113,-0.36229263
 29\\Version=EM64M-G09RevD.01\State=1-A1\HF=-40.2021063\MP2=-40.3659521
 \RMSD=2.159e-09\PG=TD [O(C1),4C3(H1)]\\@


 IT IS IMPOSSIBLE TO MEDITATE ON TIME AND THE MYSTERY 
 OF NATURE WITHOUT AN OVERWHELMING EMOTION AT THE
 LIMITATIONS OF HUMAN INTELLIGENCE.

                                         -- ALFRED NORTH WHITEHEAD
 Job cpu time:       0 days  0 hours  0 minutes  0.9 seconds.
 File lengths (MBytes):  RWF=      5 Int=      0 D2E=      0 Chk=      1 Scr=      1
 Normal termination of Gaussian 09 at Mon Dec 14 12:40:48 2015.
