    #         X           Y           Z        CHARGE     MIN DIST    ATOMIC VOL
 --------------------------------------------------------------------------------
    1   0.0000000   0.0000000   0.0000000   4.0571839   0.8439262 406.8876682
    2   1.1900510   1.1900510   1.1900510   1.0037808   0.3729960 493.5911118
    3  -1.1900510  -1.1900510   1.1900510   0.9757233   0.3460171 488.9244591
    4  -1.1900510   1.1900510  -1.1900510   0.9757233   0.3460171 489.9614931
    5   1.1900510  -1.1900510  -1.1900510   0.9757233   0.3460171 490.9985270
 --------------------------------------------------------------------------------
    VACUUM CHARGE:               0.0000
    VACUUM VOLUME:               0.0000
    NUMBER OF ELECTRONS:         7.9881
